<?xml version="1.0" encoding="UTF-8"?>

<!-- generated on 2024-07-10 17:12:43 by Eclipse SUMO GUI Version v1_19_0+1953-d1f119dd4db
<configuration xmlns:xsi="http://www.w3.org/2001/XMLSchema-instance" xsi:noNamespaceSchemaLocation="http://sumo.dlr.de/xsd/sumoConfiguration.xsd">

    <input>
        <net-file value="tjunction.net.xml"/>
        <route-files value="demand_02.rou.xml"/>
    </input>

    <output>
        <tripinfo-output value="tripinfo.xml"/>
    </output>

    <traci_server>
        <remote-port value="50984"/>
    </traci_server>

</configuration>
-->

<tripinfos xmlns:xsi="http://www.w3.org/2001/XMLSchema-instance" xsi:noNamespaceSchemaLocation="http://sumo.dlr.de/xsd/tripinfo_file.xsd">
    <tripinfo id="vehicle1" depart="0.00" departLane="E0_0" departPos="4.10" departSpeed="0.00" departDelay="0.00" arrival="7.00" arrivalLane="E1_0" arrivalPos="39.60" arrivalSpeed="15.00" duration="7.00" routeLength="95.90" waitingTime="0.00" waitingCount="0" stopTime="0.00" timeLoss="-0.13" rerouteNo="0" devices="tripinfo_vehicle1" vType="car" speedFactor="1.06" vaporized=""/>
    <tripinfo id="vehicle11" depart="1.00" departLane="E2_1" departPos="4.10" departSpeed="0.00" departDelay="0.00" arrival="9.00" arrivalLane="E1_1" arrivalPos="39.60" arrivalSpeed="15.00" duration="8.00" routeLength="89.29" waitingTime="0.00" waitingCount="0" stopTime="0.00" timeLoss="-0.25" rerouteNo="0" devices="tripinfo_vehicle11" vType="car" speedFactor="0.94" vaporized=""/>
    <tripinfo id="vehicle21" depart="2.00" departLane="E0_1" departPos="4.10" departSpeed="0.00" departDelay="0.00" arrival="10.00" arrivalLane="E1_1" arrivalPos="39.60" arrivalSpeed="15.00" duration="8.00" routeLength="95.90" waitingTime="0.00" waitingCount="0" stopTime="0.00" timeLoss="1.16" rerouteNo="0" devices="tripinfo_vehicle21" vType="car" speedFactor="1.01" vaporized=""/>
    <tripinfo id="vehicle3" depart="6.00" departLane="E0_0" departPos="4.10" departSpeed="0.00" departDelay="0.00" arrival="11.00" arrivalLane="E1_0" arrivalPos="39.60" arrivalSpeed="15.00" duration="5.00" routeLength="81.50" waitingTime="0.00" waitingCount="0" stopTime="0.00" timeLoss="-0.16" rerouteNo="0" devices="tripinfo_vehicle3" vType="car" speedFactor="1.05" vaporized=""/>
    <tripinfo id="vehicle12" depart="4.00" departLane="E2_1" departPos="4.10" departSpeed="0.00" departDelay="0.00" arrival="13.00" arrivalLane="E1_1" arrivalPos="39.60" arrivalSpeed="15.00" duration="9.00" routeLength="89.29" waitingTime="0.00" waitingCount="0" stopTime="0.00" timeLoss="1.38" rerouteNo="0" devices="tripinfo_vehicle12" vType="car" speedFactor="1.03" vaporized=""/>
    <tripinfo id="vehicle31" depart="5.00" departLane="E2_0" departPos="4.10" departSpeed="0.00" departDelay="0.00" arrival="13.00" arrivalLane="E1_0" arrivalPos="39.60" arrivalSpeed="15.00" duration="8.00" routeLength="84.13" waitingTime="0.00" waitingCount="0" stopTime="0.00" timeLoss="-0.76" rerouteNo="0" devices="tripinfo_vehicle31" vType="car" speedFactor="0.83" vaporized=""/>
    <tripinfo id="vehicle22" depart="7.00" departLane="E0_1" departPos="4.10" departSpeed="0.00" departDelay="0.00" arrival="14.00" arrivalLane="E1_1" arrivalPos="39.60" arrivalSpeed="15.00" duration="7.00" routeLength="95.90" waitingTime="0.00" waitingCount="0" stopTime="0.00" timeLoss="-1.15" rerouteNo="0" devices="tripinfo_vehicle22" vType="car" speedFactor="0.89" vaporized=""/>
    <tripinfo id="vehicle2" depart="3.00" departLane="E0_0" departPos="4.10" departSpeed="0.00" departDelay="0.00" arrival="15.00" arrivalLane="E1_0" arrivalPos="39.60" arrivalSpeed="15.00" duration="12.00" routeLength="95.90" waitingTime="0.00" waitingCount="0" stopTime="0.00" timeLoss="4.83" rerouteNo="0" devices="tripinfo_vehicle2" vType="car" speedFactor="1.08" vaporized=""/>
    <tripinfo id="vehicle13" depart="8.00" departLane="E2_1" departPos="4.10" departSpeed="0.00" departDelay="0.00" arrival="17.00" arrivalLane="E1_1" arrivalPos="39.60" arrivalSpeed="15.00" duration="9.00" routeLength="89.29" waitingTime="0.00" waitingCount="0" stopTime="0.00" timeLoss="1.38" rerouteNo="0" devices="tripinfo_vehicle13" vType="car" speedFactor="0.94" vaporized=""/>
    <tripinfo id="vehicle32" depart="10.00" departLane="E2_0" departPos="4.10" departSpeed="0.00" departDelay="0.00" arrival="18.00" arrivalLane="E1_0" arrivalPos="39.60" arrivalSpeed="15.00" duration="8.00" routeLength="84.13" waitingTime="0.00" waitingCount="0" stopTime="0.00" timeLoss="1.66" rerouteNo="0" devices="tripinfo_vehicle32" vType="car" speedFactor="1.09" vaporized=""/>
    <tripinfo id="vehicle4" depart="9.00" departLane="E0_0" departPos="4.10" departSpeed="0.00" departDelay="0.00" arrival="19.00" arrivalLane="E1_0" arrivalPos="39.60" arrivalSpeed="15.00" duration="10.00" routeLength="95.90" waitingTime="0.00" waitingCount="0" stopTime="0.00" timeLoss="1.61" rerouteNo="0" devices="tripinfo_vehicle4" vType="car" speedFactor="0.86" vaporized=""/>
    <tripinfo id="vehicle23" depart="11.00" departLane="E0_1" departPos="4.10" departSpeed="0.00" departDelay="0.00" arrival="19.00" arrivalLane="E1_1" arrivalPos="39.60" arrivalSpeed="15.00" duration="8.00" routeLength="95.90" waitingTime="0.00" waitingCount="0" stopTime="0.00" timeLoss="0.33" rerouteNo="0" devices="tripinfo_vehicle23" vType="car" speedFactor="1.03" vaporized=""/>
    <tripinfo id="vehicle14" depart="13.00" departLane="E2_1" departPos="4.10" departSpeed="0.00" departDelay="0.00" arrival="22.00" arrivalLane="E1_1" arrivalPos="39.60" arrivalSpeed="15.00" duration="9.00" routeLength="89.29" waitingTime="0.00" waitingCount="0" stopTime="0.00" timeLoss="2.06" rerouteNo="0" devices="tripinfo_vehicle14" vType="car" speedFactor="1.12" vaporized=""/>
    <tripinfo id="vehicle33" depart="14.00" departLane="E2_0" departPos="4.10" departSpeed="0.00" departDelay="0.00" arrival="22.00" arrivalLane="E1_0" arrivalPos="39.60" arrivalSpeed="15.00" duration="8.00" routeLength="84.13" waitingTime="0.00" waitingCount="0" stopTime="0.00" timeLoss="1.14" rerouteNo="0" devices="tripinfo_vehicle33" vType="car" speedFactor="0.99" vaporized=""/>
    <tripinfo id="vehicle5" depart="12.00" departLane="E0_0" departPos="4.10" departSpeed="0.00" departDelay="0.00" arrival="24.00" arrivalLane="E1_0" arrivalPos="39.60" arrivalSpeed="15.00" duration="12.00" routeLength="95.90" waitingTime="0.00" waitingCount="0" stopTime="0.00" timeLoss="4.70" rerouteNo="0" devices="tripinfo_vehicle5" vType="car" speedFactor="1.05" vaporized=""/>
    <tripinfo id="vehicle24" depart="15.00" departLane="E0_1" departPos="4.10" departSpeed="0.00" departDelay="0.00" arrival="25.00" arrivalLane="E1_1" arrivalPos="39.60" arrivalSpeed="15.00" duration="10.00" routeLength="95.90" waitingTime="0.00" waitingCount="0" stopTime="0.00" timeLoss="1.97" rerouteNo="0" devices="tripinfo_vehicle24" vType="car" speedFactor="0.93" vaporized=""/>
    <tripinfo id="vehicle6" depart="16.00" departLane="E0_0" departPos="4.10" departSpeed="0.00" departDelay="0.00" arrival="25.00" arrivalLane="E1_0" arrivalPos="39.60" arrivalSpeed="15.00" duration="9.00" routeLength="95.90" waitingTime="0.00" waitingCount="0" stopTime="0.00" timeLoss="0.55" rerouteNo="0" devices="tripinfo_vehicle6" vType="car" speedFactor="0.88" vaporized=""/>
    <tripinfo id="vehicle15" depart="17.00" departLane="E2_1" departPos="4.10" departSpeed="0.00" departDelay="0.00" arrival="27.00" arrivalLane="E1_1" arrivalPos="39.60" arrivalSpeed="15.00" duration="10.00" routeLength="89.29" waitingTime="0.00" waitingCount="0" stopTime="0.00" timeLoss="1.90" rerouteNo="0" devices="tripinfo_vehicle15" vType="car" speedFactor="0.94" vaporized=""/>
    <tripinfo id="vehicle7" depart="19.00" departLane="E0_0" departPos="4.10" departSpeed="0.00" departDelay="0.00" arrival="27.00" arrivalLane="E1_0" arrivalPos="39.60" arrivalSpeed="15.00" duration="8.00" routeLength="95.90" waitingTime="0.00" waitingCount="0" stopTime="0.00" timeLoss="1.37" rerouteNo="0" devices="tripinfo_vehicle7" vType="car" speedFactor="1.16" vaporized=""/>
    <tripinfo id="vehicle34" depart="18.00" departLane="E2_0" departPos="4.10" departSpeed="0.00" departDelay="0.00" arrival="28.00" arrivalLane="E1_0" arrivalPos="39.60" arrivalSpeed="15.00" duration="10.00" routeLength="84.13" waitingTime="0.00" waitingCount="0" stopTime="0.00" timeLoss="1.73" rerouteNo="0" devices="tripinfo_vehicle34" vType="car" speedFactor="0.94" vaporized=""/>
    <tripinfo id="vehicle35" depart="21.00" departLane="E2_0" departPos="4.10" departSpeed="0.00" departDelay="0.00" arrival="29.00" arrivalLane="E1_0" arrivalPos="39.60" arrivalSpeed="15.00" duration="8.00" routeLength="84.13" waitingTime="0.00" waitingCount="0" stopTime="0.00" timeLoss="0.36" rerouteNo="0" devices="tripinfo_vehicle35" vType="car" speedFactor="1.01" vaporized=""/>
    <tripinfo id="vehicle25" depart="20.00" departLane="E0_1" departPos="4.10" departSpeed="0.00" departDelay="0.00" arrival="30.00" arrivalLane="E1_1" arrivalPos="39.60" arrivalSpeed="15.00" duration="10.00" routeLength="95.90" waitingTime="0.00" waitingCount="0" stopTime="0.00" timeLoss="2.20" rerouteNo="0" devices="tripinfo_vehicle25" vType="car" speedFactor="1.02" vaporized=""/>
    <tripinfo id="vehicle16" depart="22.00" departLane="E2_1" departPos="4.10" departSpeed="0.00" departDelay="0.00" arrival="31.00" arrivalLane="E1_1" arrivalPos="39.60" arrivalSpeed="15.00" duration="9.00" routeLength="89.29" waitingTime="0.00" waitingCount="0" stopTime="0.00" timeLoss="1.40" rerouteNo="0" devices="tripinfo_vehicle16" vType="car" speedFactor="0.97" vaporized=""/>
    <tripinfo id="vehicle26" depart="24.00" departLane="E0_1" departPos="4.10" departSpeed="0.00" departDelay="0.00" arrival="31.00" arrivalLane="E1_1" arrivalPos="39.60" arrivalSpeed="15.00" duration="7.00" routeLength="95.90" waitingTime="0.00" waitingCount="0" stopTime="0.00" timeLoss="-2.16" rerouteNo="0" devices="tripinfo_vehicle26" vType="car" speedFactor="0.83" vaporized=""/>
    <tripinfo id="vehicle8" depart="23.00" departLane="E0_0" departPos="4.10" departSpeed="0.00" departDelay="0.00" arrival="32.00" arrivalLane="E1_1" arrivalPos="39.60" arrivalSpeed="15.00" duration="9.00" routeLength="95.90" waitingTime="0.00" waitingCount="0" stopTime="0.00" timeLoss="0.80" rerouteNo="0" devices="tripinfo_vehicle8" vType="car" speedFactor="0.89" vaporized=""/>
    <tripinfo id="vehicle17" depart="26.00" departLane="E2_1" departPos="4.10" departSpeed="0.00" departDelay="0.00" arrival="34.00" arrivalLane="E1_1" arrivalPos="39.60" arrivalSpeed="15.00" duration="8.00" routeLength="89.29" waitingTime="0.00" waitingCount="0" stopTime="0.00" timeLoss="0.13" rerouteNo="0" devices="tripinfo_vehicle17" vType="car" speedFactor="0.92" vaporized=""/>
    <tripinfo id="vehicle36" depart="25.00" departLane="E2_0" departPos="4.10" departSpeed="0.00" departDelay="0.00" arrival="35.00" arrivalLane="E1_0" arrivalPos="39.60" arrivalSpeed="15.00" duration="10.00" routeLength="84.13" waitingTime="0.00" waitingCount="0" stopTime="0.00" timeLoss="1.63" rerouteNo="0" devices="tripinfo_vehicle36" vType="car" speedFactor="0.87" vaporized=""/>
    <tripinfo id="vehicle9" depart="27.00" departLane="E0_0" departPos="4.10" departSpeed="0.00" departDelay="0.00" arrival="35.00" arrivalLane="E1_0" arrivalPos="39.60" arrivalSpeed="15.00" duration="8.00" routeLength="95.90" waitingTime="0.00" waitingCount="0" stopTime="0.00" timeLoss="3.24" rerouteNo="0" devices="tripinfo_vehicle9" vType="car" speedFactor="0.95" vaporized="teleport"/>
    <tripinfo id="vehicle18" depart="29.00" departLane="E2_1" departPos="4.10" departSpeed="0.00" departDelay="0.00" arrival="37.00" arrivalLane="E1_1" arrivalPos="39.60" arrivalSpeed="15.00" duration="8.00" routeLength="89.29" waitingTime="0.00" waitingCount="0" stopTime="0.00" timeLoss="-0.36" rerouteNo="0" devices="tripinfo_vehicle18" vType="car" speedFactor="0.93" vaporized=""/>
    <tripinfo id="vehicle37" depart="30.00" departLane="E2_0" departPos="4.10" departSpeed="0.00" departDelay="0.00" arrival="37.00" arrivalLane="E1_0" arrivalPos="39.60" arrivalSpeed="15.00" duration="7.00" routeLength="84.13" waitingTime="0.00" waitingCount="0" stopTime="0.00" timeLoss="1.17" rerouteNo="0" devices="tripinfo_vehicle37" vType="car" speedFactor="1.18" vaporized=""/>
    <tripinfo id="vehicle27" depart="28.00" departLane="E0_1" departPos="4.10" departSpeed="0.00" departDelay="0.00" arrival="38.00" arrivalLane="E1_1" arrivalPos="39.60" arrivalSpeed="15.00" duration="10.00" routeLength="95.90" waitingTime="0.00" waitingCount="0" stopTime="0.00" timeLoss="3.51" rerouteNo="0" devices="tripinfo_vehicle27" vType="car" speedFactor="1.13" vaporized=""/>
    <tripinfo id="vehicle39" depart="36.00" departLane="E2_0" departPos="4.10" departSpeed="0.00" departDelay="0.00" arrival="40.00" arrivalLane="E1_0" arrivalPos="39.60" arrivalSpeed="15.00" duration="4.00" routeLength="75.10" waitingTime="0.00" waitingCount="0" stopTime="0.00" timeLoss="0.02" rerouteNo="0" devices="tripinfo_vehicle39" vType="car" speedFactor="0.97" vaporized=""/>
    <tripinfo id="vehicle10" depart="31.00" departLane="E0_0" departPos="4.10" departSpeed="0.00" departDelay="0.00" arrival="41.00" arrivalLane="E1_0" arrivalPos="39.60" arrivalSpeed="15.00" duration="10.00" routeLength="95.90" waitingTime="0.00" waitingCount="0" stopTime="0.00" timeLoss="3.73" rerouteNo="0" devices="tripinfo_vehicle10" vType="car" speedFactor="1.15" vaporized=""/>
    <tripinfo id="vehicle28" depart="32.00" departLane="E0_1" departPos="4.10" departSpeed="0.00" departDelay="0.00" arrival="41.00" arrivalLane="E1_1" arrivalPos="39.60" arrivalSpeed="15.00" duration="9.00" routeLength="95.90" waitingTime="0.00" waitingCount="0" stopTime="0.00" timeLoss="1.54" rerouteNo="0" devices="tripinfo_vehicle28" vType="car" speedFactor="1.01" vaporized=""/>
    <tripinfo id="vehicle29" depart="35.00" departLane="E0_1" departPos="4.10" departSpeed="0.00" departDelay="0.00" arrival="42.00" arrivalLane="E1_1" arrivalPos="39.60" arrivalSpeed="15.00" duration="7.00" routeLength="95.90" waitingTime="0.00" waitingCount="0" stopTime="0.00" timeLoss="-0.41" rerouteNo="0" devices="tripinfo_vehicle29" vType="car" speedFactor="1.02" vaporized=""/>
    <tripinfo id="vehicle38" depart="33.00" departLane="E2_0" departPos="4.10" departSpeed="0.00" departDelay="0.00" arrival="43.00" arrivalLane="E1_0" arrivalPos="39.60" arrivalSpeed="15.00" duration="10.00" routeLength="84.13" waitingTime="0.00" waitingCount="0" stopTime="0.00" timeLoss="3.86" rerouteNo="0" devices="tripinfo_vehicle38" vType="car" speedFactor="1.17" vaporized=""/>
    <tripinfo id="vehicle19" depart="34.00" departLane="E2_1" departPos="4.10" departSpeed="0.00" departDelay="0.00" arrival="44.00" arrivalLane="E1_1" arrivalPos="39.60" arrivalSpeed="15.00" duration="10.00" routeLength="89.29" waitingTime="0.00" waitingCount="0" stopTime="0.00" timeLoss="2.00" rerouteNo="0" devices="tripinfo_vehicle19" vType="car" speedFactor="0.99" vaporized=""/>
    <tripinfo id="vehicle20" depart="37.00" departLane="E2_1" departPos="4.10" departSpeed="0.00" departDelay="0.00" arrival="45.00" arrivalLane="E1_1" arrivalPos="39.60" arrivalSpeed="15.00" duration="8.00" routeLength="89.29" waitingTime="0.00" waitingCount="0" stopTime="0.00" timeLoss="1.46" rerouteNo="0" devices="tripinfo_vehicle20" vType="car" speedFactor="1.18" vaporized=""/>
    <tripinfo id="vehicle40" depart="39.00" departLane="E2_0" departPos="4.10" departSpeed="0.00" departDelay="0.00" arrival="46.00" arrivalLane="E1_0" arrivalPos="39.60" arrivalSpeed="15.00" duration="7.00" routeLength="84.13" waitingTime="0.00" waitingCount="0" stopTime="0.00" timeLoss="-0.78" rerouteNo="0" devices="tripinfo_vehicle40" vType="car" speedFactor="0.90" vaporized=""/>
    <tripinfo id="vehicle30" depart="38.00" departLane="E0_1" departPos="4.10" departSpeed="0.00" departDelay="0.00" arrival="48.00" arrivalLane="E1_1" arrivalPos="39.60" arrivalSpeed="15.00" duration="10.00" routeLength="95.90" waitingTime="0.00" waitingCount="0" stopTime="0.00" timeLoss="3.34" rerouteNo="0" devices="tripinfo_vehicle30" vType="car" speedFactor="1.10" vaporized=""/>
</tripinfos>
