<?xml version="1.0" encoding="UTF-8"?>

<!-- generated on 2024-06-11 20:45:15 by Eclipse SUMO GUI Version v1_19_0+1953-d1f119dd4db
<configuration xmlns:xsi="http://www.w3.org/2001/XMLSchema-instance" xsi:noNamespaceSchemaLocation="http://sumo.dlr.de/xsd/sumoConfiguration.xsd">

    <input>
        <net-file value="tjunction.net.xml"/>
        <route-files value="multiple_demand.rou.xml"/>
    </input>

    <output>
        <tripinfo-output value="tripinfor.xml"/>
    </output>

    <traci_server>
        <remote-port value="62908"/>
    </traci_server>

</configuration>
-->

<tripinfos xmlns:xsi="http://www.w3.org/2001/XMLSchema-instance" xsi:noNamespaceSchemaLocation="http://sumo.dlr.de/xsd/tripinfo_file.xsd">
    <tripinfo id="vehicle1" depart="0.00" departLane="E0_0" departPos="4.10" departSpeed="0.00" departDelay="0.00" arrival="9.00" arrivalLane="E1_0" arrivalPos="39.60" arrivalSpeed="11.23" duration="9.00" routeLength="95.90" waitingTime="0.00" waitingCount="0" stopTime="0.00" timeLoss="4.00" rerouteNo="0" devices="tripinfo_vehicle1" vType="car" speedFactor="1.06" vaporized="teleport"/>
    <tripinfo id="vehicle2" depart="0.00" departLane="E2_0" departPos="4.10" departSpeed="0.00" departDelay="0.00" arrival="11.00" arrivalLane="E1_0" arrivalPos="39.60" arrivalSpeed="10.03" duration="11.00" routeLength="84.13" waitingTime="0.00" waitingCount="0" stopTime="0.00" timeLoss="3.63" rerouteNo="0" devices="tripinfo_vehicle2" vType="car" speedFactor="0.94" vaporized=""/>
    <tripinfo id="vehicle4" depart="2.00" departLane="E2_0" departPos="4.10" departSpeed="0.00" departDelay="0.00" arrival="13.00" arrivalLane="E1_0" arrivalPos="39.60" arrivalSpeed="7.43" duration="11.00" routeLength="84.13" waitingTime="0.00" waitingCount="0" stopTime="0.00" timeLoss="6.76" rerouteNo="0" devices="tripinfo_vehicle4" vType="car" speedFactor="1.08" vaporized="teleport"/>
    <tripinfo id="vehicle3" depart="2.00" departLane="E0_0" departPos="4.10" departSpeed="0.00" departDelay="0.00" arrival="14.00" arrivalLane="E1_0" arrivalPos="39.60" arrivalSpeed="9.66" duration="12.00" routeLength="95.90" waitingTime="0.00" waitingCount="0" stopTime="0.00" timeLoss="5.14" rerouteNo="0" devices="tripinfo_vehicle3" vType="car" speedFactor="1.01" vaporized=""/>
    <tripinfo id="vehicle5" depart="4.00" departLane="E0_0" departPos="4.10" departSpeed="0.00" departDelay="0.00" arrival="17.00" arrivalLane="E1_0" arrivalPos="39.60" arrivalSpeed="9.41" duration="13.00" routeLength="95.90" waitingTime="0.00" waitingCount="0" stopTime="0.00" timeLoss="5.76" rerouteNo="0" devices="tripinfo_vehicle5" vType="car" speedFactor="1.03" vaporized=""/>
    <tripinfo id="vehicle8" depart="7.00" departLane="E2_0" departPos="4.10" departSpeed="0.00" departDelay="1.00" arrival="18.00" arrivalLane="E1_0" arrivalPos="39.60" arrivalSpeed="5.25" duration="11.00" routeLength="84.13" waitingTime="0.00" waitingCount="0" stopTime="0.00" timeLoss="6.27" rerouteNo="0" devices="tripinfo_vehicle8" vType="car" speedFactor="0.89" vaporized="teleport"/>
    <tripinfo id="vehicle7" depart="6.00" departLane="E0_0" departPos="4.10" departSpeed="0.00" departDelay="0.00" arrival="20.00" arrivalLane="E1_0" arrivalPos="39.60" arrivalSpeed="8.50" duration="14.00" routeLength="95.90" waitingTime="0.00" waitingCount="0" stopTime="0.00" timeLoss="6.99" rerouteNo="0" devices="tripinfo_vehicle7" vType="car" speedFactor="1.05" vaporized=""/>
    <tripinfo id="vehicle6" depart="5.00" departLane="E2_0" departPos="4.10" departSpeed="0.00" departDelay="1.00" arrival="22.00" arrivalLane="E1_1" arrivalPos="39.60" arrivalSpeed="7.22" duration="17.00" routeLength="89.29" waitingTime="0.00" waitingCount="0" stopTime="0.00" timeLoss="8.12" rerouteNo="0" devices="tripinfo_vehicle6" vType="car" speedFactor="0.83" vaporized=""/>
    <tripinfo id="vehicle9" depart="8.00" departLane="E0_0" departPos="4.10" departSpeed="0.00" departDelay="0.00" arrival="23.00" arrivalLane="E1_0" arrivalPos="39.60" arrivalSpeed="7.77" duration="15.00" routeLength="95.90" waitingTime="0.00" waitingCount="0" stopTime="0.00" timeLoss="7.31" rerouteNo="0" devices="tripinfo_vehicle9" vType="car" speedFactor="0.94" vaporized=""/>
    <tripinfo id="vehicle11" depart="10.00" departLane="E0_0" departPos="4.10" departSpeed="0.00" departDelay="0.00" arrival="24.00" arrivalLane="E1_0" arrivalPos="39.60" arrivalSpeed="8.16" duration="14.00" routeLength="95.90" waitingTime="0.00" waitingCount="0" stopTime="0.00" timeLoss="7.53" rerouteNo="0" devices="tripinfo_vehicle11" vType="car" speedFactor="1.09" vaporized=""/>
    <tripinfo id="vehicle12" depart="12.00" departLane="E2_0" departPos="4.10" departSpeed="0.00" departDelay="2.00" arrival="24.00" arrivalLane="E1_0" arrivalPos="39.60" arrivalSpeed="5.17" duration="12.00" routeLength="84.13" waitingTime="0.00" waitingCount="0" stopTime="0.00" timeLoss="7.82" rerouteNo="0" devices="tripinfo_vehicle12" vType="car" speedFactor="1.03" vaporized="teleport"/>
    <tripinfo id="vehicle13" depart="12.00" departLane="E0_0" departPos="4.10" departSpeed="0.00" departDelay="0.00" arrival="26.00" arrivalLane="E1_0" arrivalPos="39.60" arrivalSpeed="8.35" duration="14.00" routeLength="95.90" waitingTime="0.00" waitingCount="0" stopTime="0.00" timeLoss="7.24" rerouteNo="0" devices="tripinfo_vehicle13" vType="car" speedFactor="1.05" vaporized=""/>
    <tripinfo id="vehicle10" depart="10.00" departLane="E2_0" departPos="4.10" departSpeed="0.00" departDelay="2.00" arrival="28.00" arrivalLane="E1_1" arrivalPos="39.60" arrivalSpeed="7.04" duration="18.00" routeLength="89.29" waitingTime="0.00" waitingCount="0" stopTime="0.00" timeLoss="9.59" rerouteNo="0" devices="tripinfo_vehicle10" vType="car" speedFactor="0.86" vaporized=""/>
    <tripinfo id="vehicle15" depart="14.00" departLane="E0_0" departPos="4.10" departSpeed="0.00" departDelay="0.00" arrival="29.00" arrivalLane="E1_0" arrivalPos="39.60" arrivalSpeed="7.39" duration="15.00" routeLength="95.90" waitingTime="0.00" waitingCount="0" stopTime="0.00" timeLoss="7.91" rerouteNo="0" devices="tripinfo_vehicle15" vType="car" speedFactor="0.99" vaporized=""/>
    <tripinfo id="vehicle17" depart="16.00" departLane="E0_0" departPos="4.10" departSpeed="0.00" departDelay="0.00" arrival="30.00" arrivalLane="E1_0" arrivalPos="39.60" arrivalSpeed="7.96" duration="14.00" routeLength="95.90" waitingTime="0.00" waitingCount="0" stopTime="0.00" timeLoss="6.05" rerouteNo="0" devices="tripinfo_vehicle17" vType="car" speedFactor="0.88" vaporized=""/>
    <tripinfo id="vehicle14" depart="15.00" departLane="E2_0" departPos="4.10" departSpeed="0.00" departDelay="3.00" arrival="33.00" arrivalLane="E1_1" arrivalPos="39.60" arrivalSpeed="6.54" duration="18.00" routeLength="89.29" waitingTime="0.00" waitingCount="0" stopTime="0.00" timeLoss="11.71" rerouteNo="0" devices="tripinfo_vehicle14" vType="car" speedFactor="1.12" vaporized=""/>
    <tripinfo id="vehicle19" depart="18.00" departLane="E0_0" departPos="4.10" departSpeed="0.00" departDelay="0.00" arrival="33.00" arrivalLane="E1_0" arrivalPos="39.60" arrivalSpeed="7.77" duration="15.00" routeLength="95.90" waitingTime="0.00" waitingCount="0" stopTime="0.00" timeLoss="7.14" rerouteNo="0" devices="tripinfo_vehicle19" vType="car" speedFactor="0.94" vaporized=""/>
    <tripinfo id="vehicle16" depart="17.00" departLane="E2_0" departPos="4.10" departSpeed="0.00" departDelay="3.00" arrival="34.00" arrivalLane="E1_0" arrivalPos="39.60" arrivalSpeed="7.83" duration="17.00" routeLength="84.13" waitingTime="0.00" waitingCount="0" stopTime="0.00" timeLoss="9.54" rerouteNo="0" devices="tripinfo_vehicle16" vType="car" speedFactor="0.93" vaporized=""/>
    <tripinfo id="vehicle18" depart="20.00" departLane="E2_0" departPos="4.10" departSpeed="0.00" departDelay="4.00" arrival="37.00" arrivalLane="E1_1" arrivalPos="39.60" arrivalSpeed="8.45" duration="17.00" routeLength="89.29" waitingTime="0.00" waitingCount="0" stopTime="0.00" timeLoss="8.89" rerouteNo="0" devices="tripinfo_vehicle18" vType="car" speedFactor="0.94" vaporized=""/>
    <tripinfo id="vehicle20" depart="22.00" departLane="E2_0" departPos="4.10" departSpeed="0.00" departDelay="4.00" arrival="38.00" arrivalLane="E1_0" arrivalPos="39.60" arrivalSpeed="11.51" duration="16.00" routeLength="84.13" waitingTime="0.00" waitingCount="0" stopTime="0.00" timeLoss="9.49" rerouteNo="0" devices="tripinfo_vehicle20" vType="car" speedFactor="1.16" vaporized=""/>
</tripinfos>
