<?xml version="1.0" encoding="UTF-8"?>

<!-- generated on 2024-06-18 16:52:29 by Eclipse SUMO GUI Version v1_19_0+1953-d1f119dd4db
<configuration xmlns:xsi="http://www.w3.org/2001/XMLSchema-instance" xsi:noNamespaceSchemaLocation="http://sumo.dlr.de/xsd/sumoConfiguration.xsd">

    <input>
        <net-file value="tjunction.net.xml"/>
        <route-files value="multiple_demand.rou.xml"/>
    </input>

    <output>
        <tripinfo-output value="tripinfo.xml"/>
    </output>

    <traci_server>
        <remote-port value="51115"/>
    </traci_server>

</configuration>
-->

<tripinfos xmlns:xsi="http://www.w3.org/2001/XMLSchema-instance" xsi:noNamespaceSchemaLocation="http://sumo.dlr.de/xsd/tripinfo_file.xsd">
    <tripinfo id="vehicle1" depart="0.00" departLane="E0_0" departPos="4.10" departSpeed="0.00" departDelay="0.00" arrival="12.00" arrivalLane="E1_0" arrivalPos="39.60" arrivalSpeed="9.99" duration="12.00" routeLength="95.90" waitingTime="0.00" waitingCount="0" stopTime="0.00" timeLoss="4.88" rerouteNo="0" devices="tripinfo_vehicle1" vType="car" speedFactor="1.06" vaporized=""/>
    <tripinfo id="vehicleA" depart="3.00" departLane="E2_0" departPos="4.10" departSpeed="0.00" departDelay="2.00" arrival="12.00" arrivalLane="E1_0" arrivalPos="39.60" arrivalSpeed="6.83" duration="9.00" routeLength="84.13" waitingTime="0.00" waitingCount="0" stopTime="0.00" timeLoss="4.33" rerouteNo="0" devices="tripinfo_vehicleA" vType="car" speedFactor="1.01" vaporized="teleport"/>
    <tripinfo id="vehicle2" depart="0.00" departLane="E2_0" departPos="4.10" departSpeed="0.00" departDelay="0.00" arrival="14.00" arrivalLane="E1_0" arrivalPos="39.60" arrivalSpeed="7.86" duration="14.00" routeLength="84.13" waitingTime="0.00" waitingCount="0" stopTime="0.00" timeLoss="6.36" rerouteNo="0" devices="tripinfo_vehicle2" vType="car" speedFactor="0.94" vaporized=""/>
    <tripinfo id="vehicle3" depart="2.00" departLane="E0_0" departPos="4.10" departSpeed="0.00" departDelay="0.00" arrival="16.00" arrivalLane="E1_0" arrivalPos="39.60" arrivalSpeed="8.84" duration="14.00" routeLength="95.90" waitingTime="0.00" waitingCount="0" stopTime="0.00" timeLoss="7.15" rerouteNo="0" devices="tripinfo_vehicle3" vType="car" speedFactor="1.08" vaporized=""/>
    <tripinfo id="vehicle7" depart="6.00" departLane="E0_0" departPos="4.10" departSpeed="0.00" departDelay="0.00" arrival="18.00" arrivalLane="E1_0" arrivalPos="39.60" arrivalSpeed="7.65" duration="12.00" routeLength="95.90" waitingTime="0.00" waitingCount="0" stopTime="0.00" timeLoss="7.24" rerouteNo="0" devices="tripinfo_vehicle7" vType="car" speedFactor="0.94" vaporized="teleport"/>
    <tripinfo id="vehicle5" depart="4.00" departLane="E0_0" departPos="4.10" departSpeed="0.00" departDelay="0.00" arrival="20.00" arrivalLane="E1_1" arrivalPos="39.60" arrivalSpeed="7.01" duration="16.00" routeLength="95.90" waitingTime="0.00" waitingCount="0" stopTime="0.00" timeLoss="9.28" rerouteNo="0" devices="tripinfo_vehicle5" vType="car" speedFactor="1.05" vaporized=""/>
    <tripinfo id="vehicle4" depart="5.00" departLane="E2_0" departPos="4.10" departSpeed="0.00" departDelay="3.00" arrival="22.00" arrivalLane="E1_1" arrivalPos="39.60" arrivalSpeed="5.88" duration="17.00" routeLength="89.29" waitingTime="0.00" waitingCount="0" stopTime="0.00" timeLoss="10.06" rerouteNo="0" devices="tripinfo_vehicle4" vType="car" speedFactor="1.03" vaporized=""/>
    <tripinfo id="vehicle11" depart="10.00" departLane="E0_0" departPos="4.10" departSpeed="0.00" departDelay="0.00" arrival="24.00" arrivalLane="E1_0" arrivalPos="39.60" arrivalSpeed="7.32" duration="14.00" routeLength="95.90" waitingTime="0.00" waitingCount="0" stopTime="0.00" timeLoss="8.76" rerouteNo="0" devices="tripinfo_vehicle11" vType="car" speedFactor="1.05" vaporized="teleport"/>
    <tripinfo id="vehicleB" depart="6.00" departLane="E2_0" departPos="4.10" departSpeed="0.00" departDelay="2.00" arrival="25.00" arrivalLane="E1_0" arrivalPos="39.60" arrivalSpeed="4.76" duration="19.00" routeLength="84.13" waitingTime="0.00" waitingCount="0" stopTime="0.00" timeLoss="10.69" rerouteNo="0" devices="tripinfo_vehicleB" vType="car" speedFactor="0.83" vaporized=""/>
    <tripinfo id="vehicle9" depart="8.00" departLane="E0_0" departPos="4.10" departSpeed="0.00" departDelay="0.00" arrival="25.00" arrivalLane="E1_1" arrivalPos="39.60" arrivalSpeed="6.71" duration="17.00" routeLength="95.90" waitingTime="0.00" waitingCount="0" stopTime="0.00" timeLoss="10.59" rerouteNo="0" devices="tripinfo_vehicle9" vType="car" speedFactor="1.09" vaporized=""/>
    <tripinfo id="vehicle15" depart="14.00" departLane="E0_0" departPos="4.10" departSpeed="0.00" departDelay="0.00" arrival="26.00" arrivalLane="E1_0" arrivalPos="39.60" arrivalSpeed="6.35" duration="12.00" routeLength="95.90" waitingTime="0.00" waitingCount="0" stopTime="0.00" timeLoss="7.33" rerouteNo="0" devices="tripinfo_vehicle15" vType="car" speedFactor="0.88" vaporized="teleport"/>
    <tripinfo id="vehicle6" depart="9.00" departLane="E2_0" departPos="4.10" departSpeed="0.00" departDelay="5.00" arrival="27.00" arrivalLane="E1_0" arrivalPos="39.60" arrivalSpeed="6.58" duration="18.00" routeLength="84.13" waitingTime="0.00" waitingCount="0" stopTime="0.00" timeLoss="10.14" rerouteNo="0" devices="tripinfo_vehicle6" vType="car" speedFactor="0.89" vaporized=""/>
    <tripinfo id="vehicle13" depart="12.00" departLane="E0_0" departPos="4.10" departSpeed="0.00" departDelay="0.00" arrival="28.00" arrivalLane="E1_1" arrivalPos="39.60" arrivalSpeed="6.97" duration="16.00" routeLength="95.90" waitingTime="0.00" waitingCount="0" stopTime="0.00" timeLoss="9.62" rerouteNo="0" devices="tripinfo_vehicle13" vType="car" speedFactor="0.99" vaporized="teleport"/>
    <tripinfo id="vehicle14" depart="17.00" departLane="E2_0" departPos="4.10" departSpeed="0.00" departDelay="5.00" arrival="28.00" arrivalLane="E1_1" arrivalPos="39.60" arrivalSpeed="6.48" duration="11.00" routeLength="89.29" waitingTime="0.00" waitingCount="0" stopTime="0.00" timeLoss="6.54" rerouteNo="0" devices="tripinfo_vehicle14" vType="car" speedFactor="0.93" vaporized="teleport"/>
    <tripinfo id="vehicle8" depart="11.00" departLane="E2_0" departPos="4.10" departSpeed="0.00" departDelay="5.00" arrival="29.00" arrivalLane="E1_1" arrivalPos="39.60" arrivalSpeed="5.79" duration="18.00" routeLength="89.29" waitingTime="0.00" waitingCount="0" stopTime="0.00" timeLoss="9.59" rerouteNo="0" devices="tripinfo_vehicle8" vType="car" speedFactor="0.86" vaporized=""/>
    <tripinfo id="vehicle10" depart="12.00" departLane="E2_0" departPos="4.10" departSpeed="0.00" departDelay="4.00" arrival="31.00" arrivalLane="E1_0" arrivalPos="39.60" arrivalSpeed="4.83" duration="19.00" routeLength="84.13" waitingTime="0.00" waitingCount="0" stopTime="0.00" timeLoss="12.23" rerouteNo="0" devices="tripinfo_vehicle10" vType="car" speedFactor="1.03" vaporized=""/>
    <tripinfo id="vehicle19" depart="18.00" departLane="E0_0" departPos="4.10" departSpeed="0.00" departDelay="0.00" arrival="31.00" arrivalLane="E1_0" arrivalPos="39.60" arrivalSpeed="7.64" duration="13.00" routeLength="95.90" waitingTime="0.00" waitingCount="0" stopTime="0.00" timeLoss="8.47" rerouteNo="0" devices="tripinfo_vehicle19" vType="car" speedFactor="1.02" vaporized="teleport"/>
    <tripinfo id="vehicle12" depart="15.00" departLane="E2_0" departPos="4.10" departSpeed="0.00" departDelay="5.00" arrival="33.00" arrivalLane="E1_0" arrivalPos="39.60" arrivalSpeed="6.22" duration="18.00" routeLength="84.13" waitingTime="0.00" waitingCount="0" stopTime="0.00" timeLoss="11.73" rerouteNo="0" devices="tripinfo_vehicle12" vType="car" speedFactor="1.12" vaporized=""/>
    <tripinfo id="vehicle17" depart="16.00" departLane="E0_0" departPos="4.10" departSpeed="0.00" departDelay="0.00" arrival="33.00" arrivalLane="E1_1" arrivalPos="39.60" arrivalSpeed="6.75" duration="17.00" routeLength="95.90" waitingTime="0.00" waitingCount="0" stopTime="0.00" timeLoss="9.53" rerouteNo="0" devices="tripinfo_vehicle17" vType="car" speedFactor="0.94" vaporized=""/>
    <tripinfo id="vehicle16" depart="18.00" departLane="E2_0" departPos="4.10" departSpeed="0.00" departDelay="4.00" arrival="36.00" arrivalLane="E1_0" arrivalPos="39.60" arrivalSpeed="6.76" duration="18.00" routeLength="84.13" waitingTime="0.00" waitingCount="0" stopTime="0.00" timeLoss="10.27" rerouteNo="0" devices="tripinfo_vehicle16" vType="car" speedFactor="0.94" vaporized=""/>
    <tripinfo id="vehicle18" depart="20.00" departLane="E2_0" departPos="4.10" departSpeed="0.00" departDelay="4.00" arrival="37.00" arrivalLane="E1_1" arrivalPos="39.60" arrivalSpeed="8.90" duration="17.00" routeLength="89.29" waitingTime="0.00" waitingCount="0" stopTime="0.00" timeLoss="10.48" rerouteNo="0" devices="tripinfo_vehicle18" vType="car" speedFactor="1.16" vaporized=""/>
    <tripinfo id="vehicle20" depart="21.00" departLane="E2_0" departPos="4.10" departSpeed="0.00" departDelay="3.00" arrival="37.00" arrivalLane="E1_0" arrivalPos="39.60" arrivalSpeed="9.98" duration="16.00" routeLength="84.13" waitingTime="0.00" waitingCount="0" stopTime="0.00" timeLoss="8.60" rerouteNo="0" devices="tripinfo_vehicle20" vType="car" speedFactor="1.01" vaporized=""/>
</tripinfos>
