<?xml version="1.0" encoding="UTF-8"?>

<!-- generated on 2024-06-18 16:34:30 by Eclipse SUMO GUI Version v1_19_0+1953-d1f119dd4db
<configuration xmlns:xsi="http://www.w3.org/2001/XMLSchema-instance" xsi:noNamespaceSchemaLocation="http://sumo.dlr.de/xsd/sumoConfiguration.xsd">

    <input>
        <net-file value="tjunction.net.xml"/>
        <route-files value="multiple_demand.rou.xml"/>
    </input>

    <output>
        <tripinfo-output value="tripinfor.xml"/>
    </output>

    <traci_server>
        <remote-port value="50734"/>
    </traci_server>

</configuration>
-->

<tripinfos xmlns:xsi="http://www.w3.org/2001/XMLSchema-instance" xsi:noNamespaceSchemaLocation="http://sumo.dlr.de/xsd/tripinfo_file.xsd">
    <tripinfo id="vehicle1" depart="0.00" departLane="E0_0" departPos="4.10" departSpeed="0.00" departDelay="0.00" arrival="32.00" arrivalLane="E1_0" arrivalPos="39.60" arrivalSpeed="1.97" duration="32.00" routeLength="95.90" waitingTime="0.00" waitingCount="0" stopTime="0.00" timeLoss="28.11" rerouteNo="0" devices="tripinfo_vehicle1" vType="car" speedFactor="1.06" vaporized="teleport"/>
    <tripinfo id="vehicle6" depart="13.00" departLane="E2_0" departPos="4.10" departSpeed="0.00" departDelay="9.00" arrival="39.00" arrivalLane="E1_0" arrivalPos="39.60" arrivalSpeed="1.94" duration="26.00" routeLength="84.13" waitingTime="0.00" waitingCount="0" stopTime="0.00" timeLoss="21.41" rerouteNo="0" devices="tripinfo_vehicle6" vType="car" speedFactor="0.89" vaporized="teleport"/>
    <tripinfo id="vehicleB" depart="11.00" departLane="E2_0" departPos="4.10" departSpeed="0.00" departDelay="7.00" arrival="40.00" arrivalLane="E1_1" arrivalPos="39.60" arrivalSpeed="1.96" duration="29.00" routeLength="89.29" waitingTime="0.00" waitingCount="0" stopTime="0.00" timeLoss="23.56" rerouteNo="0" devices="tripinfo_vehicleB" vType="car" speedFactor="0.83" vaporized="teleport"/>
    <tripinfo id="vehicle20" depart="37.00" departLane="E2_0" departPos="4.10" departSpeed="0.00" departDelay="19.00" arrival="42.00" arrivalLane="E1_1" arrivalPos="39.60" arrivalSpeed="12.83" duration="5.00" routeLength="75.10" waitingTime="0.00" waitingCount="0" stopTime="0.00" timeLoss="2.67" rerouteNo="0" devices="tripinfo_vehicle20" vType="car" speedFactor="1.01" vaporized=""/>
    <tripinfo id="vehicle2" depart="0.00" departLane="E2_0" departPos="4.10" departSpeed="0.00" departDelay="0.00" arrival="45.00" arrivalLane="E1_0" arrivalPos="39.60" arrivalSpeed="3.06" duration="45.00" routeLength="84.13" waitingTime="0.00" waitingCount="0" stopTime="0.00" timeLoss="37.53" rerouteNo="0" devices="tripinfo_vehicle2" vType="car" speedFactor="0.94" vaporized=""/>
    <tripinfo id="vehicle9" depart="13.00" departLane="E0_0" departPos="4.10" departSpeed="0.00" departDelay="5.00" arrival="45.00" arrivalLane="E1_0" arrivalPos="39.60" arrivalSpeed="1.97" duration="32.00" routeLength="95.90" waitingTime="0.00" waitingCount="0" stopTime="0.00" timeLoss="28.22" rerouteNo="0" devices="tripinfo_vehicle9" vType="car" speedFactor="1.09" vaporized="teleport"/>
    <tripinfo id="vehicle4" depart="6.00" departLane="E2_0" departPos="4.10" departSpeed="0.00" departDelay="4.00" arrival="52.00" arrivalLane="E1_0" arrivalPos="39.60" arrivalSpeed="1.99" duration="46.00" routeLength="84.13" waitingTime="0.00" waitingCount="0" stopTime="0.00" timeLoss="39.29" rerouteNo="0" devices="tripinfo_vehicle4" vType="car" speedFactor="1.03" vaporized=""/>
    <tripinfo id="vehicle14" depart="26.00" departLane="E2_0" departPos="4.10" departSpeed="0.00" departDelay="14.00" arrival="52.00" arrivalLane="E1_0" arrivalPos="39.60" arrivalSpeed="1.94" duration="26.00" routeLength="84.13" waitingTime="0.00" waitingCount="0" stopTime="0.00" timeLoss="21.61" rerouteNo="0" devices="tripinfo_vehicle14" vType="car" speedFactor="0.93" vaporized="teleport"/>
    <tripinfo id="vehicleA" depart="5.00" departLane="E2_0" departPos="4.10" departSpeed="0.00" departDelay="4.00" arrival="53.00" arrivalLane="E1_1" arrivalPos="39.60" arrivalSpeed="3.17" duration="48.00" routeLength="89.29" waitingTime="0.00" waitingCount="0" stopTime="0.00" timeLoss="40.76" rerouteNo="0" devices="tripinfo_vehicleA" vType="car" speedFactor="1.01" vaporized=""/>
    <tripinfo id="vehicle12" depart="24.00" departLane="E2_0" departPos="4.10" departSpeed="0.00" departDelay="14.00" arrival="53.00" arrivalLane="E1_1" arrivalPos="39.60" arrivalSpeed="1.96" duration="29.00" routeLength="89.29" waitingTime="0.00" waitingCount="0" stopTime="0.00" timeLoss="24.97" rerouteNo="0" devices="tripinfo_vehicle12" vType="car" speedFactor="1.12" vaporized="teleport"/>
    <tripinfo id="vehicle3" depart="5.00" departLane="E0_0" departPos="4.10" departSpeed="0.00" departDelay="3.00" arrival="57.00" arrivalLane="E1_1" arrivalPos="39.60" arrivalSpeed="2.00" duration="52.00" routeLength="95.90" waitingTime="0.00" waitingCount="0" stopTime="0.00" timeLoss="45.55" rerouteNo="0" devices="tripinfo_vehicle3" vType="car" speedFactor="1.08" vaporized=""/>
    <tripinfo id="vehicle5" depart="6.00" departLane="E0_0" departPos="4.10" departSpeed="0.00" departDelay="2.00" arrival="58.00" arrivalLane="E1_0" arrivalPos="39.60" arrivalSpeed="3.18" duration="52.00" routeLength="95.90" waitingTime="0.00" waitingCount="0" stopTime="0.00" timeLoss="45.24" rerouteNo="0" devices="tripinfo_vehicle5" vType="car" speedFactor="1.05" vaporized=""/>
    <tripinfo id="vehicle17" depart="26.00" departLane="E0_0" departPos="4.10" departSpeed="0.00" departDelay="10.00" arrival="58.00" arrivalLane="E1_0" arrivalPos="39.60" arrivalSpeed="1.97" duration="32.00" routeLength="95.90" waitingTime="0.00" waitingCount="0" stopTime="0.00" timeLoss="27.59" rerouteNo="0" devices="tripinfo_vehicle17" vType="car" speedFactor="0.94" vaporized="teleport"/>
    <tripinfo id="vehicle19" depart="31.00" departLane="E0_0" departPos="4.10" departSpeed="0.00" departDelay="13.00" arrival="61.00" arrivalLane="E1_1" arrivalPos="39.60" arrivalSpeed="5.19" duration="30.00" routeLength="95.90" waitingTime="0.00" waitingCount="0" stopTime="0.00" timeLoss="25.75" rerouteNo="0" devices="tripinfo_vehicle19" vType="car" speedFactor="1.02" vaporized="teleport"/>
    <tripinfo id="vehicle7" depart="11.00" departLane="E0_0" departPos="4.10" departSpeed="0.00" departDelay="5.00" arrival="63.00" arrivalLane="E1_1" arrivalPos="39.60" arrivalSpeed="2.00" duration="52.00" routeLength="95.90" waitingTime="0.00" waitingCount="0" stopTime="0.00" timeLoss="44.55" rerouteNo="0" devices="tripinfo_vehicle7" vType="car" speedFactor="0.94" vaporized=""/>
    <tripinfo id="vehicle10" depart="19.00" departLane="E2_0" departPos="4.10" departSpeed="0.00" departDelay="11.00" arrival="65.00" arrivalLane="E1_0" arrivalPos="39.60" arrivalSpeed="1.99" duration="46.00" routeLength="84.13" waitingTime="0.00" waitingCount="0" stopTime="0.00" timeLoss="39.27" rerouteNo="0" devices="tripinfo_vehicle10" vType="car" speedFactor="1.03" vaporized=""/>
    <tripinfo id="vehicle8" depart="18.00" departLane="E2_0" departPos="4.10" departSpeed="0.00" departDelay="12.00" arrival="66.00" arrivalLane="E1_1" arrivalPos="39.60" arrivalSpeed="3.17" duration="48.00" routeLength="89.29" waitingTime="0.00" waitingCount="0" stopTime="0.00" timeLoss="39.46" rerouteNo="0" devices="tripinfo_vehicle8" vType="car" speedFactor="0.86" vaporized=""/>
    <tripinfo id="vehicle11" depart="18.00" departLane="E0_0" departPos="4.10" departSpeed="0.00" departDelay="8.00" arrival="70.00" arrivalLane="E1_1" arrivalPos="39.60" arrivalSpeed="2.00" duration="52.00" routeLength="95.90" waitingTime="0.00" waitingCount="0" stopTime="0.00" timeLoss="45.33" rerouteNo="0" devices="tripinfo_vehicle11" vType="car" speedFactor="1.05" vaporized=""/>
    <tripinfo id="vehicle13" depart="19.00" departLane="E0_0" departPos="4.10" departSpeed="0.00" departDelay="7.00" arrival="71.00" arrivalLane="E1_0" arrivalPos="39.60" arrivalSpeed="3.18" duration="52.00" routeLength="95.90" waitingTime="0.00" waitingCount="0" stopTime="0.00" timeLoss="44.87" rerouteNo="0" devices="tripinfo_vehicle13" vType="car" speedFactor="0.99" vaporized=""/>
    <tripinfo id="vehicle15" depart="24.00" departLane="E0_0" departPos="4.10" departSpeed="0.00" departDelay="10.00" arrival="76.00" arrivalLane="E1_1" arrivalPos="39.60" arrivalSpeed="2.00" duration="52.00" routeLength="95.90" waitingTime="0.00" waitingCount="0" stopTime="0.00" timeLoss="44.05" rerouteNo="0" devices="tripinfo_vehicle15" vType="car" speedFactor="0.88" vaporized=""/>
    <tripinfo id="vehicle18" depart="32.00" departLane="E2_0" departPos="4.10" departSpeed="0.00" departDelay="16.00" arrival="78.00" arrivalLane="E1_0" arrivalPos="39.60" arrivalSpeed="1.99" duration="46.00" routeLength="84.13" waitingTime="0.00" waitingCount="0" stopTime="0.00" timeLoss="40.03" rerouteNo="0" devices="tripinfo_vehicle18" vType="car" speedFactor="1.16" vaporized=""/>
    <tripinfo id="vehicle16" depart="31.00" departLane="E2_0" departPos="4.10" departSpeed="0.00" departDelay="17.00" arrival="79.00" arrivalLane="E1_1" arrivalPos="39.60" arrivalSpeed="3.17" duration="48.00" routeLength="89.29" waitingTime="0.00" waitingCount="0" stopTime="0.00" timeLoss="40.23" rerouteNo="0" devices="tripinfo_vehicle16" vType="car" speedFactor="0.94" vaporized=""/>
</tripinfos>
