<?xml version="1.0" encoding="UTF-8"?>

<!-- generated on 2024-06-11 17:59:42 by Eclipse SUMO GUI Version v1_19_0+1953-d1f119dd4db
<configuration xmlns:xsi="http://www.w3.org/2001/XMLSchema-instance" xsi:noNamespaceSchemaLocation="http://sumo.dlr.de/xsd/sumoConfiguration.xsd">

    <input>
        <net-file value="tjunction.net.xml"/>
        <route-files value="multiple_demand.rou.xml"/>
    </input>

    <output>
        <tripinfo-output value="tripinfo.xml"/>
    </output>

    <traci_server>
        <remote-port value="61436"/>
    </traci_server>

</configuration>
-->

<tripinfos xmlns:xsi="http://www.w3.org/2001/XMLSchema-instance" xsi:noNamespaceSchemaLocation="http://sumo.dlr.de/xsd/tripinfo_file.xsd">
    <tripinfo id="vehicle2" depart="0.00" departLane="E2_0" departPos="4.10" departSpeed="0.00" departDelay="0.00" arrival="9.00" arrivalLane="E1_0" arrivalPos="39.60" arrivalSpeed="11.37" duration="9.00" routeLength="84.13" waitingTime="0.00" waitingCount="0" stopTime="0.00" timeLoss="2.32" rerouteNo="0" devices="tripinfo_vehicle2" vType="car" speedFactor="0.94" vaporized=""/>
    <tripinfo id="vehicle4" depart="2.00" departLane="E2_0" departPos="4.10" departSpeed="0.00" departDelay="0.00" arrival="14.00" arrivalLane="E1_0" arrivalPos="39.60" arrivalSpeed="4.54" duration="12.00" routeLength="84.13" waitingTime="0.00" waitingCount="0" stopTime="0.00" timeLoss="5.48" rerouteNo="0" devices="tripinfo_vehicle4" vType="car" speedFactor="1.08" vaporized=""/>
    <tripinfo id="vehicle1" depart="0.00" departLane="E0_0" departPos="4.10" departSpeed="0.00" departDelay="0.00" arrival="17.00" arrivalLane="E1_0" arrivalPos="39.60" arrivalSpeed="3.60" duration="17.00" routeLength="95.90" waitingTime="0.00" waitingCount="0" stopTime="0.00" timeLoss="10.35" rerouteNo="0" devices="tripinfo_vehicle1" vType="car" speedFactor="1.06" vaporized=""/>
    <tripinfo id="vehicle3" depart="5.00" departLane="E0_0" departPos="4.10" departSpeed="0.00" departDelay="3.00" arrival="20.00" arrivalLane="E1_0" arrivalPos="39.60" arrivalSpeed="3.01" duration="15.00" routeLength="95.90" waitingTime="0.00" waitingCount="0" stopTime="0.00" timeLoss="9.04" rerouteNo="0" devices="tripinfo_vehicle3" vType="car" speedFactor="1.01" vaporized="teleport"/>
    <tripinfo id="vehicle6" depart="5.00" departLane="E2_0" departPos="4.10" departSpeed="0.00" departDelay="1.00" arrival="25.00" arrivalLane="E1_0" arrivalPos="39.60" arrivalSpeed="3.33" duration="20.00" routeLength="84.13" waitingTime="1.00" waitingCount="1" stopTime="0.00" timeLoss="11.77" rerouteNo="0" devices="tripinfo_vehicle6" vType="car" speedFactor="0.83" vaporized=""/>
    <tripinfo id="vehicle7" depart="10.00" departLane="E0_0" departPos="4.10" departSpeed="0.00" departDelay="4.00" arrival="26.00" arrivalLane="E1_0" arrivalPos="39.60" arrivalSpeed="3.29" duration="16.00" routeLength="95.90" waitingTime="0.00" waitingCount="0" stopTime="0.00" timeLoss="10.66" rerouteNo="0" devices="tripinfo_vehicle7" vType="car" speedFactor="1.05" vaporized="teleport"/>
    <tripinfo id="vehicle5" depart="8.00" departLane="E0_0" departPos="4.10" departSpeed="0.00" departDelay="4.00" arrival="28.00" arrivalLane="E1_1" arrivalPos="39.60" arrivalSpeed="1.62" duration="20.00" routeLength="95.90" waitingTime="1.00" waitingCount="1" stopTime="0.00" timeLoss="13.29" rerouteNo="0" devices="tripinfo_vehicle5" vType="car" speedFactor="1.03" vaporized=""/>
    <tripinfo id="vehicle12" depart="12.00" departLane="E2_0" departPos="4.10" departSpeed="0.00" departDelay="2.00" arrival="29.00" arrivalLane="E1_0" arrivalPos="39.60" arrivalSpeed="6.03" duration="17.00" routeLength="84.13" waitingTime="0.00" waitingCount="0" stopTime="0.00" timeLoss="11.14" rerouteNo="0" devices="tripinfo_vehicle12" vType="car" speedFactor="1.03" vaporized="teleport"/>
    <tripinfo id="vehicle10" depart="11.00" departLane="E2_0" departPos="4.10" departSpeed="0.00" departDelay="3.00" arrival="33.00" arrivalLane="E1_1" arrivalPos="39.60" arrivalSpeed="2.13" duration="22.00" routeLength="89.29" waitingTime="0.00" waitingCount="0" stopTime="0.00" timeLoss="13.53" rerouteNo="0" devices="tripinfo_vehicle10" vType="car" speedFactor="0.86" vaporized=""/>
    <tripinfo id="vehicle8" depart="8.00" departLane="E2_0" departPos="4.10" departSpeed="0.00" departDelay="2.00" arrival="34.00" arrivalLane="E1_0" arrivalPos="39.60" arrivalSpeed="4.15" duration="26.00" routeLength="84.13" waitingTime="2.00" waitingCount="2" stopTime="0.00" timeLoss="18.17" rerouteNo="0" devices="tripinfo_vehicle8" vType="car" speedFactor="0.89" vaporized=""/>
    <tripinfo id="vehicle13" depart="17.00" departLane="E0_0" departPos="4.10" departSpeed="0.00" departDelay="5.00" arrival="37.00" arrivalLane="E1_1" arrivalPos="39.60" arrivalSpeed="4.53" duration="20.00" routeLength="95.90" waitingTime="1.00" waitingCount="1" stopTime="0.00" timeLoss="15.16" rerouteNo="0" devices="tripinfo_vehicle13" vType="car" speedFactor="1.05" vaporized="teleport"/>
    <tripinfo id="vehicle14" depart="15.00" departLane="E2_0" departPos="4.10" departSpeed="0.00" departDelay="3.00" arrival="40.00" arrivalLane="E1_1" arrivalPos="39.60" arrivalSpeed="2.43" duration="25.00" routeLength="89.29" waitingTime="0.00" waitingCount="0" stopTime="0.00" timeLoss="18.53" rerouteNo="0" devices="tripinfo_vehicle14" vType="car" speedFactor="1.12" vaporized=""/>
    <tripinfo id="vehicle18" depart="19.00" departLane="E2_0" departPos="4.10" departSpeed="0.00" departDelay="3.00" arrival="46.00" arrivalLane="E1_1" arrivalPos="39.60" arrivalSpeed="8.29" duration="27.00" routeLength="84.13" waitingTime="1.00" waitingCount="1" stopTime="0.00" timeLoss="19.70" rerouteNo="0" devices="tripinfo_vehicle18" vType="car" speedFactor="0.94" vaporized=""/>
    <tripinfo id="vehicle9" depart="13.00" departLane="E0_0" departPos="4.10" departSpeed="0.00" departDelay="5.00" arrival="48.00" arrivalLane="E1_0" arrivalPos="39.60" arrivalSpeed="5.49" duration="35.00" routeLength="95.90" waitingTime="3.00" waitingCount="3" stopTime="0.00" timeLoss="27.29" rerouteNo="0" devices="tripinfo_vehicle9" vType="car" speedFactor="0.94" vaporized=""/>
    <tripinfo id="vehicle15" depart="20.00" departLane="E0_0" departPos="4.10" departSpeed="0.00" departDelay="6.00" arrival="55.00" arrivalLane="E1_1" arrivalPos="39.60" arrivalSpeed="3.72" duration="35.00" routeLength="81.50" waitingTime="2.00" waitingCount="2" stopTime="0.00" timeLoss="29.28" rerouteNo="0" devices="tripinfo_vehicle15" vType="car" speedFactor="0.99" vaporized=""/>
    <tripinfo id="vehicle16" depart="18.00" departLane="E2_0" departPos="4.10" departSpeed="0.00" departDelay="4.00" arrival="58.00" arrivalLane="E1_1" arrivalPos="39.60" arrivalSpeed="6.44" duration="40.00" routeLength="89.29" waitingTime="3.00" waitingCount="3" stopTime="0.00" timeLoss="32.01" rerouteNo="0" devices="tripinfo_vehicle16" vType="car" speedFactor="0.93" vaporized=""/>
    <tripinfo id="vehicle19" depart="24.00" departLane="E0_0" departPos="4.10" departSpeed="0.00" departDelay="6.00" arrival="62.00" arrivalLane="E1_0" arrivalPos="39.60" arrivalSpeed="6.45" duration="38.00" routeLength="81.50" waitingTime="4.00" waitingCount="4" stopTime="0.00" timeLoss="32.08" rerouteNo="0" devices="tripinfo_vehicle19" vType="car" speedFactor="0.94" vaporized=""/>
    <tripinfo id="vehicle11" depart="14.00" departLane="E0_0" departPos="4.10" departSpeed="0.00" departDelay="4.00" arrival="64.00" arrivalLane="E1_0" arrivalPos="39.60" arrivalSpeed="8.37" duration="50.00" routeLength="95.90" waitingTime="5.00" waitingCount="5" stopTime="0.00" timeLoss="43.28" rerouteNo="0" devices="tripinfo_vehicle11" vType="car" speedFactor="1.09" vaporized=""/>
    <tripinfo id="vehicle17" depart="23.00" departLane="E0_0" departPos="4.10" departSpeed="0.00" departDelay="7.00" arrival="65.00" arrivalLane="E1_1" arrivalPos="39.60" arrivalSpeed="6.44" duration="42.00" routeLength="95.90" waitingTime="7.00" waitingCount="7" stopTime="0.00" timeLoss="33.75" rerouteNo="0" devices="tripinfo_vehicle17" vType="car" speedFactor="0.88" vaporized=""/>
    <tripinfo id="vehicle20" depart="22.00" departLane="E2_0" departPos="4.10" departSpeed="0.00" departDelay="4.00" arrival="67.00" arrivalLane="E1_1" arrivalPos="39.60" arrivalSpeed="7.43" duration="45.00" routeLength="84.13" waitingTime="4.00" waitingCount="4" stopTime="0.00" timeLoss="38.91" rerouteNo="0" devices="tripinfo_vehicle20" vType="car" speedFactor="1.16" vaporized=""/>
</tripinfos>
