<?xml version="1.0" encoding="UTF-8"?>

<!-- generated on 2024-05-21 09:01:48 by Eclipse SUMO GUI Version v1_19_0+1953-d1f119dd4db
<configuration xmlns:xsi="http://www.w3.org/2001/XMLSchema-instance" xsi:noNamespaceSchemaLocation="http://sumo.dlr.de/xsd/sumoConfiguration.xsd">

    <input>
        <net-file value="tjunction.net.xml"/>
        <route-files value="multiple_demand.rou.xml"/>
    </input>

    <output>
        <tripinfo-output value="tripinfor.xml"/>
    </output>

    <traci_server>
        <remote-port value="53017"/>
    </traci_server>

</configuration>
-->

<tripinfos xmlns:xsi="http://www.w3.org/2001/XMLSchema-instance" xsi:noNamespaceSchemaLocation="http://sumo.dlr.de/xsd/tripinfo_file.xsd">
    <tripinfo id="vehicle1" depart="0.00" departLane="E0_0" departPos="4.10" departSpeed="0.00" departDelay="0.00" arrival="11.00" arrivalLane="E1_0" arrivalPos="39.60" arrivalSpeed="10.16" duration="11.00" routeLength="95.90" waitingTime="0.00" waitingCount="0" stopTime="0.00" timeLoss="3.86" rerouteNo="0" devices="tripinfo_vehicle1" vType="car" speedFactor="1.06" vaporized=""/>
    <tripinfo id="vehicle3" depart="3.00" departLane="E0_0" departPos="4.10" departSpeed="0.00" departDelay="1.00" arrival="22.00" arrivalLane="E1_0" arrivalPos="39.60" arrivalSpeed="1.62" duration="19.00" routeLength="95.90" waitingTime="0.00" waitingCount="0" stopTime="0.00" timeLoss="12.16" rerouteNo="0" devices="tripinfo_vehicle3" vType="car" speedFactor="1.01" vaporized=""/>
    <tripinfo id="vehicle6" depart="5.00" departLane="E2_0" departPos="4.10" departSpeed="0.00" departDelay="1.00" arrival="22.00" arrivalLane="E1_1" arrivalPos="39.60" arrivalSpeed="2.39" duration="17.00" routeLength="89.29" waitingTime="0.00" waitingCount="0" stopTime="0.00" timeLoss="10.07" rerouteNo="0" devices="tripinfo_vehicle6" vType="car" speedFactor="0.83" vaporized="teleport"/>
    <tripinfo id="vehicle15" depart="18.00" departLane="E0_0" departPos="4.10" departSpeed="0.00" departDelay="4.00" arrival="28.00" arrivalLane="E1_0" arrivalPos="39.60" arrivalSpeed="12.27" duration="10.00" routeLength="81.50" waitingTime="0.00" waitingCount="0" stopTime="0.00" timeLoss="6.70" rerouteNo="0" devices="tripinfo_vehicle15" vType="car" speedFactor="0.99" vaporized=""/>
    <tripinfo id="vehicle4" depart="4.00" departLane="E2_0" departPos="4.10" departSpeed="0.00" departDelay="2.00" arrival="30.00" arrivalLane="E1_1" arrivalPos="39.60" arrivalSpeed="1.84" duration="26.00" routeLength="89.29" waitingTime="0.00" waitingCount="0" stopTime="0.00" timeLoss="19.41" rerouteNo="0" devices="tripinfo_vehicle4" vType="car" speedFactor="1.08" vaporized=""/>
    <tripinfo id="vehicle10" depart="12.00" departLane="E2_0" departPos="4.10" departSpeed="0.00" departDelay="4.00" arrival="36.00" arrivalLane="E1_1" arrivalPos="39.60" arrivalSpeed="0.38" duration="24.00" routeLength="89.29" waitingTime="0.00" waitingCount="0" stopTime="0.00" timeLoss="18.52" rerouteNo="0" devices="tripinfo_vehicle10" vType="car" speedFactor="0.86" vaporized="teleport"/>
    <tripinfo id="vehicle13" depart="17.00" departLane="E0_0" departPos="4.10" departSpeed="0.00" departDelay="5.00" arrival="37.00" arrivalLane="E1_0" arrivalPos="39.60" arrivalSpeed="4.34" duration="20.00" routeLength="81.50" waitingTime="0.00" waitingCount="0" stopTime="0.00" timeLoss="16.77" rerouteNo="0" devices="tripinfo_vehicle13" vType="car" speedFactor="1.05" vaporized=""/>
    <tripinfo id="vehicle2" depart="0.00" departLane="E2_0" departPos="4.10" departSpeed="0.00" departDelay="0.00" arrival="40.00" arrivalLane="E1_0" arrivalPos="39.60" arrivalSpeed="4.21" duration="40.00" routeLength="84.13" waitingTime="0.00" waitingCount="0" stopTime="0.00" timeLoss="33.99" rerouteNo="0" devices="tripinfo_vehicle2" vType="car" speedFactor="0.94" vaporized="teleport"/>
    <tripinfo id="vehicle5" depart="6.00" departLane="E0_0" departPos="4.10" departSpeed="0.00" departDelay="2.00" arrival="45.00" arrivalLane="E1_1" arrivalPos="39.60" arrivalSpeed="0.37" duration="39.00" routeLength="95.90" waitingTime="0.00" waitingCount="0" stopTime="0.00" timeLoss="32.30" rerouteNo="0" devices="tripinfo_vehicle5" vType="car" speedFactor="1.03" vaporized=""/>
    <tripinfo id="vehicle14" depart="16.00" departLane="E2_0" departPos="4.10" departSpeed="0.00" departDelay="4.00" arrival="46.00" arrivalLane="E1_1" arrivalPos="39.60" arrivalSpeed="1.58" duration="30.00" routeLength="75.10" waitingTime="0.00" waitingCount="0" stopTime="0.00" timeLoss="27.12" rerouteNo="0" devices="tripinfo_vehicle14" vType="car" speedFactor="1.12" vaporized="teleport"/>
    <tripinfo id="vehicle7" depart="9.00" departLane="E0_0" departPos="4.10" departSpeed="0.00" departDelay="3.00" arrival="51.00" arrivalLane="E1_0" arrivalPos="39.60" arrivalSpeed="5.82" duration="42.00" routeLength="95.90" waitingTime="0.00" waitingCount="0" stopTime="0.00" timeLoss="35.30" rerouteNo="0" devices="tripinfo_vehicle7" vType="car" speedFactor="1.05" vaporized=""/>
    <tripinfo id="vehicle18" depart="20.00" departLane="E2_0" departPos="4.10" departSpeed="0.00" departDelay="4.00" arrival="54.00" arrivalLane="E1_1" arrivalPos="39.60" arrivalSpeed="2.84" duration="34.00" routeLength="75.10" waitingTime="1.00" waitingCount="1" stopTime="0.00" timeLoss="30.31" rerouteNo="0" devices="tripinfo_vehicle18" vType="car" speedFactor="0.94" vaporized=""/>
    <tripinfo id="vehicle16" depart="19.00" departLane="E2_0" departPos="4.10" departSpeed="0.00" departDelay="5.00" arrival="59.00" arrivalLane="E1_0" arrivalPos="39.60" arrivalSpeed="5.99" duration="40.00" routeLength="89.29" waitingTime="0.00" waitingCount="0" stopTime="0.00" timeLoss="33.85" rerouteNo="0" devices="tripinfo_vehicle16" vType="car" speedFactor="0.93" vaporized=""/>
    <tripinfo id="vehicle17" depart="21.00" departLane="E0_0" departPos="4.10" departSpeed="0.00" departDelay="5.00" arrival="63.00" arrivalLane="E1_0" arrivalPos="39.60" arrivalSpeed="7.89" duration="42.00" routeLength="95.90" waitingTime="0.00" waitingCount="0" stopTime="0.00" timeLoss="35.95" rerouteNo="0" devices="tripinfo_vehicle17" vType="car" speedFactor="0.88" vaporized=""/>
    <tripinfo id="vehicle8" depart="9.00" departLane="E2_0" departPos="4.10" departSpeed="0.00" departDelay="3.00" arrival="65.00" arrivalLane="E1_0" arrivalPos="39.60" arrivalSpeed="9.44" duration="56.00" routeLength="84.13" waitingTime="7.00" waitingCount="1" stopTime="0.00" timeLoss="48.15" rerouteNo="0" devices="tripinfo_vehicle8" vType="car" speedFactor="0.89" vaporized=""/>
    <tripinfo id="vehicle19" depart="23.00" departLane="E0_0" departPos="4.10" departSpeed="0.00" departDelay="5.00" arrival="67.00" arrivalLane="E1_1" arrivalPos="39.60" arrivalSpeed="3.69" duration="44.00" routeLength="81.50" waitingTime="0.00" waitingCount="0" stopTime="0.00" timeLoss="39.95" rerouteNo="0" devices="tripinfo_vehicle19" vType="car" speedFactor="0.94" vaporized=""/>
    <tripinfo id="vehicle12" depart="13.00" departLane="E2_0" departPos="4.10" departSpeed="0.00" departDelay="3.00" arrival="69.00" arrivalLane="E1_1" arrivalPos="39.60" arrivalSpeed="5.55" duration="56.00" routeLength="89.29" waitingTime="8.00" waitingCount="1" stopTime="0.00" timeLoss="49.07" rerouteNo="0" devices="tripinfo_vehicle12" vType="car" speedFactor="1.03" vaporized=""/>
    <tripinfo id="vehicle9" depart="11.00" departLane="E0_0" departPos="4.10" departSpeed="0.00" departDelay="3.00" arrival="71.00" arrivalLane="E1_1" arrivalPos="39.60" arrivalSpeed="8.76" duration="60.00" routeLength="95.90" waitingTime="7.00" waitingCount="1" stopTime="0.00" timeLoss="52.60" rerouteNo="0" devices="tripinfo_vehicle9" vType="car" speedFactor="0.94" vaporized=""/>
    <tripinfo id="vehicle20" depart="24.00" departLane="E2_0" departPos="4.10" departSpeed="0.00" departDelay="6.00" arrival="74.00" arrivalLane="E1_0" arrivalPos="39.60" arrivalSpeed="5.45" duration="50.00" routeLength="89.29" waitingTime="0.00" waitingCount="0" stopTime="0.00" timeLoss="45.08" rerouteNo="0" devices="tripinfo_vehicle20" vType="car" speedFactor="1.16" vaporized=""/>
    <tripinfo id="vehicle11" depart="14.00" departLane="E0_0" departPos="4.10" departSpeed="0.00" departDelay="4.00" arrival="75.00" arrivalLane="E1_1" arrivalPos="39.60" arrivalSpeed="10.19" duration="61.00" routeLength="95.90" waitingTime="16.00" waitingCount="1" stopTime="0.00" timeLoss="54.50" rerouteNo="0" devices="tripinfo_vehicle11" vType="car" speedFactor="1.09" vaporized=""/>
</tripinfos>
