<?xml version="1.0" encoding="UTF-8"?>

<!-- generated on 2024-07-05 01:56:12 by Eclipse SUMO GUI Version v1_19_0+1953-d1f119dd4db
<configuration xmlns:xsi="http://www.w3.org/2001/XMLSchema-instance" xsi:noNamespaceSchemaLocation="http://sumo.dlr.de/xsd/sumoConfiguration.xsd">

    <input>
        <net-file value="crossroad.net.xml"/>
        <route-files value="demand.rou.xml"/>
    </input>

    <output>
        <tripinfo-output value="tripinfor.xml"/>
    </output>

    <traci_server>
        <remote-port value="62913"/>
    </traci_server>

</configuration>
-->

<tripinfos xmlns:xsi="http://www.w3.org/2001/XMLSchema-instance" xsi:noNamespaceSchemaLocation="http://sumo.dlr.de/xsd/tripinfo_file.xsd">
    <tripinfo id="vehicle1" depart="1.00" departLane="E3_0" departPos="4.10" departSpeed="0.00" departDelay="0.00" arrival="8.00" arrivalLane="-E4_0" arrivalPos="42.80" arrivalSpeed="14.66" duration="7.00" routeLength="95.90" waitingTime="0.00" waitingCount="0" stopTime="0.00" timeLoss="-0.05" rerouteNo="0" devices="tripinfo_vehicle1" vType="car" speedFactor="1.06" vaporized=""/>
    <tripinfo id="vehicle2" depart="1.00" departLane="E4_0" departPos="4.10" departSpeed="0.00" departDelay="0.00" arrival="8.00" arrivalLane="-E3_0" arrivalPos="42.80" arrivalSpeed="14.48" duration="7.00" routeLength="95.90" waitingTime="0.00" waitingCount="0" stopTime="0.00" timeLoss="-0.90" rerouteNo="0" devices="tripinfo_vehicle2" vType="car" speedFactor="0.94" vaporized=""/>
    <tripinfo id="vehicle3" depart="2.00" departLane="-E6_0" departPos="4.10" departSpeed="0.00" departDelay="0.00" arrival="9.00" arrivalLane="-E5_0" arrivalPos="42.80" arrivalSpeed="14.63" duration="7.00" routeLength="95.90" waitingTime="0.00" waitingCount="0" stopTime="0.00" timeLoss="-0.39" rerouteNo="0" devices="tripinfo_vehicle3" vType="car" speedFactor="1.01" vaporized=""/>
    <tripinfo id="vehicle4" depart="2.00" departLane="E5_0" departPos="4.10" departSpeed="0.00" departDelay="0.00" arrival="9.00" arrivalLane="E6_0" arrivalPos="42.80" arrivalSpeed="14.48" duration="7.00" routeLength="95.90" waitingTime="0.00" waitingCount="0" stopTime="0.00" timeLoss="0.14" rerouteNo="0" devices="tripinfo_vehicle4" vType="car" speedFactor="1.08" vaporized=""/>
    <tripinfo id="vehicle5" depart="3.00" departLane="E3_0" departPos="4.10" departSpeed="0.00" departDelay="0.00" arrival="11.00" arrivalLane="E6_0" arrivalPos="42.80" arrivalSpeed="14.54" duration="8.00" routeLength="90.53" waitingTime="1.00" waitingCount="1" stopTime="0.00" timeLoss="-0.44" rerouteNo="0" devices="tripinfo_vehicle5" vType="car" speedFactor="1.03" vaporized=""/>
    <tripinfo id="vehicle9" depart="5.00" departLane="E3_0" departPos="4.10" departSpeed="0.00" departDelay="0.00" arrival="13.00" arrivalLane="-E5_0" arrivalPos="42.80" arrivalSpeed="14.88" duration="8.00" routeLength="95.69" waitingTime="1.00" waitingCount="1" stopTime="0.00" timeLoss="2.53" rerouteNo="0" devices="tripinfo_vehicle9" vType="car" speedFactor="0.94" vaporized="teleport"/>
    <tripinfo id="vehicle6" depart="3.00" departLane="-E6_0" departPos="4.10" departSpeed="0.00" departDelay="0.00" arrival="15.00" arrivalLane="-E4_0" arrivalPos="42.80" arrivalSpeed="14.62" duration="12.00" routeLength="90.53" waitingTime="1.00" waitingCount="1" stopTime="0.00" timeLoss="2.70" rerouteNo="0" devices="tripinfo_vehicle6" vType="car" speedFactor="0.83" vaporized=""/>
    <tripinfo id="vehicle7" depart="4.00" departLane="E4_0" departPos="4.10" departSpeed="0.00" departDelay="0.00" arrival="16.00" arrivalLane="-E5_0" arrivalPos="42.80" arrivalSpeed="14.46" duration="12.00" routeLength="90.53" waitingTime="3.00" waitingCount="1" stopTime="0.00" timeLoss="3.74" rerouteNo="0" devices="tripinfo_vehicle7" vType="car" speedFactor="1.05" vaporized=""/>
    <tripinfo id="vehicle8" depart="4.00" departLane="E5_0" departPos="4.10" departSpeed="0.00" departDelay="0.00" arrival="18.00" arrivalLane="-E3_0" arrivalPos="42.80" arrivalSpeed="14.29" duration="14.00" routeLength="90.53" waitingTime="1.00" waitingCount="1" stopTime="0.00" timeLoss="4.20" rerouteNo="0" devices="tripinfo_vehicle8" vType="car" speedFactor="0.89" vaporized=""/>
    <tripinfo id="vehicle13" depart="10.00" departLane="E3_0" departPos="4.10" departSpeed="0.00" departDelay="3.00" arrival="18.00" arrivalLane="-E4_0" arrivalPos="42.80" arrivalSpeed="14.96" duration="8.00" routeLength="95.90" waitingTime="1.00" waitingCount="1" stopTime="0.00" timeLoss="0.83" rerouteNo="0" devices="tripinfo_vehicle13" vType="car" speedFactor="1.05" vaporized=""/>
    <tripinfo id="vehicle17" depart="12.00" departLane="E3_0" departPos="4.10" departSpeed="0.00" departDelay="3.00" arrival="21.00" arrivalLane="E6_0" arrivalPos="42.80" arrivalSpeed="14.55" duration="9.00" routeLength="90.53" waitingTime="1.00" waitingCount="1" stopTime="0.00" timeLoss="-0.92" rerouteNo="0" devices="tripinfo_vehicle17" vType="car" speedFactor="0.88" vaporized=""/>
    <tripinfo id="vehicle10" depart="10.00" departLane="-E6_0" departPos="4.10" departSpeed="0.00" departDelay="5.00" arrival="23.00" arrivalLane="-E3_0" arrivalPos="42.80" arrivalSpeed="14.33" duration="13.00" routeLength="95.70" waitingTime="1.00" waitingCount="1" stopTime="0.00" timeLoss="3.35" rerouteNo="0" devices="tripinfo_vehicle10" vType="car" speedFactor="0.86" vaporized=""/>
    <tripinfo id="vehicle12" depart="12.00" departLane="E5_0" departPos="4.10" departSpeed="0.00" departDelay="6.00" arrival="23.00" arrivalLane="-E4_0" arrivalPos="42.80" arrivalSpeed="15.00" duration="11.00" routeLength="95.70" waitingTime="1.00" waitingCount="1" stopTime="0.00" timeLoss="2.95" rerouteNo="0" devices="tripinfo_vehicle12" vType="car" speedFactor="1.03" vaporized=""/>
    <tripinfo id="vehicle21" depart="15.00" departLane="E3_0" departPos="4.10" departSpeed="0.00" departDelay="4.00" arrival="23.00" arrivalLane="-E5_0" arrivalPos="42.80" arrivalSpeed="14.62" duration="8.00" routeLength="95.69" waitingTime="1.00" waitingCount="1" stopTime="0.00" timeLoss="-0.12" rerouteNo="0" devices="tripinfo_vehicle21" vType="car" speedFactor="1.02" vaporized=""/>
    <tripinfo id="vehicle11" depart="10.00" departLane="E4_0" departPos="4.10" departSpeed="0.00" departDelay="4.00" arrival="27.00" arrivalLane="E6_0" arrivalPos="42.80" arrivalSpeed="14.64" duration="17.00" routeLength="95.69" waitingTime="2.00" waitingCount="1" stopTime="0.00" timeLoss="12.14" rerouteNo="0" devices="tripinfo_vehicle11" vType="car" speedFactor="1.09" vaporized="teleport"/>
    <tripinfo id="vehicle16" depart="17.00" departLane="E5_0" departPos="4.10" departSpeed="0.00" departDelay="9.00" arrival="27.00" arrivalLane="E6_0" arrivalPos="42.80" arrivalSpeed="14.64" duration="10.00" routeLength="95.90" waitingTime="3.00" waitingCount="1" stopTime="0.00" timeLoss="5.34" rerouteNo="0" devices="tripinfo_vehicle16" vType="car" speedFactor="0.93" vaporized="teleport"/>
    <tripinfo id="vehicle25" depart="17.00" departLane="E3_0" departPos="4.10" departSpeed="0.00" departDelay="4.00" arrival="28.00" arrivalLane="-E4_0" arrivalPos="42.80" arrivalSpeed="14.73" duration="11.00" routeLength="95.90" waitingTime="1.00" waitingCount="1" stopTime="0.00" timeLoss="1.86" rerouteNo="0" devices="tripinfo_vehicle25" vType="car" speedFactor="0.83" vaporized=""/>
    <tripinfo id="vehicle15" depart="17.00" departLane="-E6_0" departPos="4.10" departSpeed="0.00" departDelay="9.00" arrival="30.00" arrivalLane="-E5_0" arrivalPos="42.80" arrivalSpeed="14.44" duration="13.00" routeLength="95.90" waitingTime="1.00" waitingCount="1" stopTime="0.00" timeLoss="5.43" rerouteNo="0" devices="tripinfo_vehicle15" vType="car" speedFactor="0.99" vaporized=""/>
    <tripinfo id="vehicle29" depart="22.00" departLane="E3_0" departPos="4.10" departSpeed="0.00" departDelay="7.00" arrival="30.00" arrivalLane="E6_0" arrivalPos="42.80" arrivalSpeed="14.42" duration="8.00" routeLength="90.53" waitingTime="1.00" waitingCount="1" stopTime="0.00" timeLoss="0.36" rerouteNo="0" devices="tripinfo_vehicle29" vType="car" speedFactor="1.13" vaporized=""/>
    <tripinfo id="vehicle37" depart="29.00" departLane="E3_0" departPos="4.10" departSpeed="0.00" departDelay="10.00" arrival="34.00" arrivalLane="-E4_0" arrivalPos="42.80" arrivalSpeed="14.83" duration="5.00" routeLength="95.90" waitingTime="1.00" waitingCount="1" stopTime="0.00" timeLoss="0.57" rerouteNo="0" devices="tripinfo_vehicle37" vType="car" speedFactor="0.97" vaporized="teleport"/>
    <tripinfo id="vehicle33" depart="24.00" departLane="E3_0" departPos="4.10" departSpeed="0.00" departDelay="7.00" arrival="35.00" arrivalLane="-E5_0" arrivalPos="42.80" arrivalSpeed="14.74" duration="11.00" routeLength="95.69" waitingTime="1.00" waitingCount="1" stopTime="0.00" timeLoss="2.70" rerouteNo="0" devices="tripinfo_vehicle33" vType="car" speedFactor="1.01" vaporized=""/>
    <tripinfo id="vehicle14" depart="24.00" departLane="E4_0" departPos="4.10" departSpeed="0.00" departDelay="17.00" arrival="36.00" arrivalLane="-E3_0" arrivalPos="42.80" arrivalSpeed="14.36" duration="12.00" routeLength="95.90" waitingTime="3.00" waitingCount="1" stopTime="0.00" timeLoss="5.38" rerouteNo="0" devices="tripinfo_vehicle14" vType="car" speedFactor="1.12" vaporized=""/>
    <tripinfo id="vehicle18" depart="24.00" departLane="-E6_0" departPos="4.10" departSpeed="0.00" departDelay="15.00" arrival="36.00" arrivalLane="-E4_0" arrivalPos="42.80" arrivalSpeed="15.00" duration="12.00" routeLength="90.53" waitingTime="1.00" waitingCount="1" stopTime="0.00" timeLoss="3.79" rerouteNo="0" devices="tripinfo_vehicle18" vType="car" speedFactor="0.94" vaporized=""/>
    <tripinfo id="vehicle20" depart="24.00" departLane="E5_0" departPos="4.10" departSpeed="0.00" departDelay="14.00" arrival="37.00" arrivalLane="-E3_0" arrivalPos="42.80" arrivalSpeed="14.29" duration="13.00" routeLength="90.53" waitingTime="3.00" waitingCount="1" stopTime="0.00" timeLoss="5.54" rerouteNo="0" devices="tripinfo_vehicle20" vType="car" speedFactor="1.16" vaporized=""/>
    <tripinfo id="vehicle22" depart="31.00" departLane="-E6_0" departPos="4.10" departSpeed="0.00" departDelay="20.00" arrival="42.00" arrivalLane="-E3_0" arrivalPos="42.80" arrivalSpeed="14.46" duration="11.00" routeLength="95.70" waitingTime="1.00" waitingCount="1" stopTime="0.00" timeLoss="2.82" rerouteNo="0" devices="tripinfo_vehicle22" vType="car" speedFactor="1.01" vaporized=""/>
    <tripinfo id="vehicle24" depart="31.00" departLane="E5_0" departPos="4.10" departSpeed="0.00" departDelay="19.00" arrival="42.00" arrivalLane="-E4_0" arrivalPos="42.80" arrivalSpeed="14.87" duration="11.00" routeLength="95.70" waitingTime="3.00" waitingCount="1" stopTime="0.00" timeLoss="1.67" rerouteNo="0" devices="tripinfo_vehicle24" vType="car" speedFactor="0.89" vaporized=""/>
    <tripinfo id="vehicle19" depart="30.00" departLane="E4_0" departPos="4.10" departSpeed="0.00" departDelay="20.00" arrival="44.00" arrivalLane="-E5_0" arrivalPos="42.80" arrivalSpeed="14.42" duration="14.00" routeLength="90.53" waitingTime="3.00" waitingCount="1" stopTime="0.00" timeLoss="4.75" rerouteNo="0" devices="tripinfo_vehicle19" vType="car" speedFactor="0.94" vaporized=""/>
    <tripinfo id="vehicle27" depart="36.00" departLane="-E6_0" departPos="4.10" departSpeed="0.00" departDelay="22.00" arrival="46.00" arrivalLane="-E5_0" arrivalPos="42.80" arrivalSpeed="14.56" duration="10.00" routeLength="95.90" waitingTime="1.00" waitingCount="1" stopTime="0.00" timeLoss="1.84" rerouteNo="0" devices="tripinfo_vehicle27" vType="car" speedFactor="0.92" vaporized=""/>
    <tripinfo id="vehicle28" depart="36.00" departLane="E5_0" departPos="4.10" departSpeed="0.00" departDelay="22.00" arrival="46.00" arrivalLane="E6_0" arrivalPos="42.80" arrivalSpeed="14.29" duration="10.00" routeLength="95.90" waitingTime="3.00" waitingCount="1" stopTime="0.00" timeLoss="2.21" rerouteNo="0" devices="tripinfo_vehicle28" vType="car" speedFactor="0.95" vaporized=""/>
    <tripinfo id="vehicle23" depart="38.00" departLane="E4_0" departPos="4.10" departSpeed="0.00" departDelay="26.00" arrival="52.00" arrivalLane="E6_0" arrivalPos="42.80" arrivalSpeed="14.34" duration="14.00" routeLength="95.69" waitingTime="2.00" waitingCount="1" stopTime="0.00" timeLoss="5.53" rerouteNo="0" devices="tripinfo_vehicle23" vType="car" speedFactor="0.97" vaporized=""/>
    <tripinfo id="vehicle30" depart="40.00" departLane="-E6_0" departPos="4.10" departSpeed="0.00" departDelay="25.00" arrival="53.00" arrivalLane="-E4_0" arrivalPos="42.80" arrivalSpeed="14.54" duration="13.00" routeLength="90.53" waitingTime="1.00" waitingCount="1" stopTime="0.00" timeLoss="3.61" rerouteNo="0" devices="tripinfo_vehicle30" vType="car" speedFactor="0.93" vaporized=""/>
    <tripinfo id="vehicle32" depart="40.00" departLane="E5_0" departPos="4.10" departSpeed="0.00" departDelay="24.00" arrival="53.00" arrivalLane="-E3_0" arrivalPos="42.80" arrivalSpeed="14.29" duration="13.00" routeLength="90.53" waitingTime="1.00" waitingCount="1" stopTime="0.00" timeLoss="5.48" rerouteNo="0" devices="tripinfo_vehicle32" vType="car" speedFactor="1.15" vaporized=""/>
    <tripinfo id="vehicle34" depart="47.00" departLane="-E6_0" departPos="4.10" departSpeed="0.00" departDelay="30.00" arrival="57.00" arrivalLane="-E3_0" arrivalPos="42.80" arrivalSpeed="14.41" duration="10.00" routeLength="95.70" waitingTime="1.00" waitingCount="1" stopTime="0.00" timeLoss="2.97" rerouteNo="0" devices="tripinfo_vehicle34" vType="car" speedFactor="1.17" vaporized=""/>
</tripinfos>
