<?xml version="1.0" encoding="UTF-8"?>

<!-- generated on 2024-06-19 12:34:34 by Eclipse SUMO GUI Version v1_19_0+1953-d1f119dd4db
<configuration xmlns:xsi="http://www.w3.org/2001/XMLSchema-instance" xsi:noNamespaceSchemaLocation="http://sumo.dlr.de/xsd/sumoConfiguration.xsd">

    <input>
        <net-file value="roundabout.net.xml"/>
        <route-files value="roundabout_demand.rou.xml"/>
    </input>

    <output>
        <tripinfo-output value="tripinfor.xml"/>
    </output>

    <traci_server>
        <remote-port value="60503"/>
    </traci_server>

</configuration>
-->

<tripinfos xmlns:xsi="http://www.w3.org/2001/XMLSchema-instance" xsi:noNamespaceSchemaLocation="http://sumo.dlr.de/xsd/tripinfo_file.xsd">
    <tripinfo id="flow_1.0" depart="0.00" departLane="E0_0" departPos="5.10" departSpeed="0.00" departDelay="0.00" arrival="20.00" arrivalLane="E30_0" arrivalPos="70.36" arrivalSpeed="14.57" duration="20.00" routeLength="176.28" waitingTime="0.00" waitingCount="0" stopTime="0.00" timeLoss="6.60" rerouteNo="0" devices="tripinfo_flow_1.0" vType="car" speedFactor="1.06" vaporized=""/>
    <tripinfo id="flow_3.0" depart="0.00" departLane="-E3_0" departPos="5.10" departSpeed="0.00" departDelay="0.00" arrival="25.00" arrivalLane="-E20_0" arrivalPos="72.09" arrivalSpeed="12.92" duration="25.00" routeLength="214.40" waitingTime="0.00" waitingCount="0" stopTime="0.00" timeLoss="8.60" rerouteNo="0" devices="tripinfo_flow_3.0" vType="car" speedFactor="1.01" vaporized=""/>
    <tripinfo id="flow_5.0" depart="0.00" departLane="E2_0" departPos="5.10" departSpeed="0.00" departDelay="0.00" arrival="25.00" arrivalLane="E30_0" arrivalPos="70.36" arrivalSpeed="13.89" duration="25.00" routeLength="215.43" waitingTime="0.00" waitingCount="0" stopTime="0.00" timeLoss="8.44" rerouteNo="0" devices="tripinfo_flow_5.0" vType="car" speedFactor="1.03" vaporized=""/>
    <tripinfo id="flow_2.0" depart="3.00" departLane="E0_0" departPos="5.10" departSpeed="0.00" departDelay="3.00" arrival="28.00" arrivalLane="E1.20_0" arrivalPos="69.82" arrivalSpeed="12.56" duration="25.00" routeLength="213.19" waitingTime="0.00" waitingCount="0" stopTime="0.00" timeLoss="7.00" rerouteNo="0" devices="tripinfo_flow_2.0" vType="car" speedFactor="0.94" vaporized=""/>
    <tripinfo id="flow_4.0" depart="0.00" departLane="-E1_0" departPos="5.10" departSpeed="0.00" departDelay="0.00" arrival="28.00" arrivalLane="E30_0" arrivalPos="70.36" arrivalSpeed="13.93" duration="28.00" routeLength="249.30" waitingTime="0.00" waitingCount="0" stopTime="0.00" timeLoss="8.86" rerouteNo="0" devices="tripinfo_flow_4.0" vType="car" speedFactor="1.08" vaporized=""/>
    <tripinfo id="flow_3.1" depart="3.00" departLane="-E3_0" departPos="5.10" departSpeed="0.00" departDelay="2.00" arrival="30.00" arrivalLane="-E20_0" arrivalPos="72.09" arrivalSpeed="11.28" duration="27.00" routeLength="214.40" waitingTime="0.00" waitingCount="0" stopTime="0.00" timeLoss="7.64" rerouteNo="0" devices="tripinfo_flow_3.1" vType="car" speedFactor="0.89" vaporized=""/>
    <tripinfo id="flow_5.1" depart="3.00" departLane="E2_0" departPos="5.10" departSpeed="0.00" departDelay="2.00" arrival="31.00" arrivalLane="E30_0" arrivalPos="70.36" arrivalSpeed="11.81" duration="28.00" routeLength="215.43" waitingTime="0.00" waitingCount="0" stopTime="0.00" timeLoss="7.95" rerouteNo="0" devices="tripinfo_flow_5.1" vType="car" speedFactor="0.86" vaporized=""/>
    <tripinfo id="flow_1.1" depart="6.00" departLane="E0_0" departPos="5.10" departSpeed="0.00" departDelay="5.00" arrival="34.00" arrivalLane="E30_0" arrivalPos="70.36" arrivalSpeed="11.00" duration="28.00" routeLength="176.28" waitingTime="2.00" waitingCount="2" stopTime="0.00" timeLoss="11.10" rerouteNo="0" devices="tripinfo_flow_1.1" vType="car" speedFactor="0.83" vaporized=""/>
    <tripinfo id="flow_3.2" depart="6.00" departLane="-E3_0" departPos="5.10" departSpeed="0.00" departDelay="4.00" arrival="35.00" arrivalLane="-E20_0" arrivalPos="72.09" arrivalSpeed="14.53" duration="29.00" routeLength="214.40" waitingTime="0.00" waitingCount="0" stopTime="0.00" timeLoss="12.51" rerouteNo="0" devices="tripinfo_flow_3.2" vType="car" speedFactor="1.05" vaporized=""/>
    <tripinfo id="flow_4.2" depart="6.00" departLane="-E1_0" departPos="5.10" departSpeed="0.00" departDelay="4.00" arrival="36.00" arrivalLane="E30_0" arrivalPos="70.36" arrivalSpeed="15.32" duration="30.00" routeLength="249.30" waitingTime="0.00" waitingCount="0" stopTime="0.00" timeLoss="11.99" rerouteNo="0" devices="tripinfo_flow_4.2" vType="car" speedFactor="1.12" vaporized=""/>
    <tripinfo id="flow_4.1" depart="3.00" departLane="-E1_0" departPos="5.10" departSpeed="0.00" departDelay="2.00" arrival="38.00" arrivalLane="E30_0" arrivalPos="70.36" arrivalSpeed="12.59" duration="35.00" routeLength="249.30" waitingTime="1.00" waitingCount="1" stopTime="0.00" timeLoss="14.31" rerouteNo="0" devices="tripinfo_flow_4.1" vType="car" speedFactor="0.94" vaporized=""/>
    <tripinfo id="flow_3.3" depart="9.00" departLane="-E3_0" departPos="5.10" departSpeed="0.00" departDelay="6.00" arrival="38.00" arrivalLane="-E20_0" arrivalPos="72.09" arrivalSpeed="12.75" duration="29.00" routeLength="214.40" waitingTime="0.00" waitingCount="0" stopTime="0.00" timeLoss="10.99" rerouteNo="0" devices="tripinfo_flow_3.3" vType="car" speedFactor="0.94" vaporized=""/>
    <tripinfo id="flow_4.3" depart="9.00" departLane="-E1_0" departPos="5.10" departSpeed="0.00" departDelay="6.00" arrival="41.00" arrivalLane="E30_0" arrivalPos="70.36" arrivalSpeed="12.67" duration="32.00" routeLength="249.30" waitingTime="0.00" waitingCount="0" stopTime="0.00" timeLoss="11.41" rerouteNo="0" devices="tripinfo_flow_4.3" vType="car" speedFactor="0.94" vaporized=""/>
    <tripinfo id="flow_3.4" depart="12.00" departLane="-E3_0" departPos="5.10" departSpeed="0.00" departDelay="8.00" arrival="43.00" arrivalLane="-E20_0" arrivalPos="72.09" arrivalSpeed="12.91" duration="31.00" routeLength="214.40" waitingTime="1.00" waitingCount="1" stopTime="0.00" timeLoss="13.33" rerouteNo="0" devices="tripinfo_flow_3.4" vType="car" speedFactor="0.97" vaporized=""/>
    <tripinfo id="flow_4.4" depart="12.00" departLane="-E1_0" departPos="5.10" departSpeed="0.00" departDelay="8.00" arrival="44.00" arrivalLane="E30_0" arrivalPos="70.36" arrivalSpeed="12.20" duration="32.00" routeLength="249.30" waitingTime="0.00" waitingCount="0" stopTime="0.00" timeLoss="9.94" rerouteNo="0" devices="tripinfo_flow_4.4" vType="car" speedFactor="0.89" vaporized=""/>
    <tripinfo id="flow_5.2" depart="6.00" departLane="E2_0" departPos="5.10" departSpeed="0.00" departDelay="4.00" arrival="46.00" arrivalLane="E30_0" arrivalPos="70.36" arrivalSpeed="13.24" duration="40.00" routeLength="215.43" waitingTime="8.00" waitingCount="1" stopTime="0.00" timeLoss="22.94" rerouteNo="0" devices="tripinfo_flow_5.2" vType="car" speedFactor="0.99" vaporized=""/>
    <tripinfo id="flow_3.5" depart="15.00" departLane="-E3_0" departPos="5.10" departSpeed="0.00" departDelay="10.00" arrival="46.00" arrivalLane="-E20_0" arrivalPos="72.09" arrivalSpeed="12.53" duration="31.00" routeLength="214.40" waitingTime="1.00" waitingCount="1" stopTime="0.00" timeLoss="12.98" rerouteNo="0" devices="tripinfo_flow_3.5" vType="car" speedFactor="0.95" vaporized=""/>
    <tripinfo id="flow_5.3" depart="9.00" departLane="E2_0" departPos="5.10" departSpeed="0.00" departDelay="6.00" arrival="48.00" arrivalLane="E30_0" arrivalPos="70.36" arrivalSpeed="15.33" duration="39.00" routeLength="215.43" waitingTime="7.00" waitingCount="1" stopTime="0.00" timeLoss="23.99" rerouteNo="0" devices="tripinfo_flow_5.3" vType="car" speedFactor="1.16" vaporized=""/>
    <tripinfo id="flow_3.6" depart="18.00" departLane="-E3_0" departPos="5.10" departSpeed="0.00" departDelay="12.00" arrival="48.00" arrivalLane="-E20_0" arrivalPos="72.09" arrivalSpeed="13.59" duration="30.00" routeLength="214.40" waitingTime="1.00" waitingCount="1" stopTime="0.00" timeLoss="12.55" rerouteNo="0" devices="tripinfo_flow_3.6" vType="car" speedFactor="1.01" vaporized=""/>
    <tripinfo id="flow_3.7" depart="21.00" departLane="-E3_0" departPos="5.10" departSpeed="0.00" departDelay="14.00" arrival="50.00" arrivalLane="-E20_0" arrivalPos="72.09" arrivalSpeed="16.06" duration="29.00" routeLength="214.40" waitingTime="0.00" waitingCount="0" stopTime="0.00" timeLoss="14.09" rerouteNo="0" devices="tripinfo_flow_3.7" vType="car" speedFactor="1.18" vaporized=""/>
    <tripinfo id="flow_4.5" depart="15.00" departLane="-E1_0" departPos="5.10" departSpeed="0.00" departDelay="10.00" arrival="51.00" arrivalLane="E30_0" arrivalPos="70.36" arrivalSpeed="15.62" duration="36.00" routeLength="249.30" waitingTime="0.00" waitingCount="0" stopTime="0.00" timeLoss="18.12" rerouteNo="0" devices="tripinfo_flow_4.5" vType="car" speedFactor="1.13" vaporized=""/>
    <tripinfo id="flow_3.8" depart="24.00" departLane="-E3_0" departPos="5.10" departSpeed="0.00" departDelay="16.00" arrival="52.00" arrivalLane="-E20_0" arrivalPos="72.09" arrivalSpeed="15.07" duration="28.00" routeLength="214.40" waitingTime="0.00" waitingCount="0" stopTime="0.00" timeLoss="12.29" rerouteNo="0" devices="tripinfo_flow_3.8" vType="car" speedFactor="1.09" vaporized=""/>
    <tripinfo id="flow_5.4" depart="12.00" departLane="E2_0" departPos="5.10" departSpeed="0.00" departDelay="8.00" arrival="56.00" arrivalLane="E30_0" arrivalPos="70.36" arrivalSpeed="10.89" duration="44.00" routeLength="215.43" waitingTime="7.00" waitingCount="2" stopTime="0.00" timeLoss="23.25" rerouteNo="0" devices="tripinfo_flow_5.4" vType="car" speedFactor="0.83" vaporized=""/>
    <tripinfo id="flow_3.9" depart="27.00" departLane="-E3_0" departPos="5.10" departSpeed="0.00" departDelay="18.00" arrival="56.00" arrivalLane="-E20_0" arrivalPos="72.09" arrivalSpeed="12.32" duration="29.00" routeLength="214.40" waitingTime="0.00" waitingCount="0" stopTime="0.00" timeLoss="9.34" rerouteNo="0" devices="tripinfo_flow_3.9" vType="car" speedFactor="0.90" vaporized=""/>
    <tripinfo id="flow_5.6" depart="18.00" departLane="E2_0" departPos="5.10" departSpeed="0.00" departDelay="12.00" arrival="58.00" arrivalLane="E30_0" arrivalPos="70.36" arrivalSpeed="13.81" duration="40.00" routeLength="215.43" waitingTime="3.00" waitingCount="1" stopTime="0.00" timeLoss="22.62" rerouteNo="0" devices="tripinfo_flow_5.6" vType="car" speedFactor="0.99" vaporized=""/>
    <tripinfo id="flow_3.10" depart="30.00" departLane="-E3_0" departPos="5.10" departSpeed="0.00" departDelay="20.00" arrival="58.00" arrivalLane="-E20_0" arrivalPos="72.09" arrivalSpeed="13.60" duration="28.00" routeLength="214.40" waitingTime="1.00" waitingCount="1" stopTime="0.00" timeLoss="10.70" rerouteNo="0" devices="tripinfo_flow_3.10" vType="car" speedFactor="1.02" vaporized=""/>
    <tripinfo id="flow_5.5" depart="15.00" departLane="E2_0" departPos="5.10" departSpeed="0.00" departDelay="10.00" arrival="60.00" arrivalLane="E30_0" arrivalPos="70.36" arrivalSpeed="12.14" duration="45.00" routeLength="215.43" waitingTime="4.00" waitingCount="1" stopTime="0.00" timeLoss="26.59" rerouteNo="0" devices="tripinfo_flow_5.5" vType="car" speedFactor="0.93" vaporized=""/>
    <tripinfo id="flow_3.11" depart="33.00" departLane="-E3_0" departPos="5.10" departSpeed="0.00" departDelay="22.00" arrival="60.00" arrivalLane="-E20_0" arrivalPos="72.09" arrivalSpeed="15.21" duration="27.00" routeLength="214.40" waitingTime="0.00" waitingCount="0" stopTime="0.00" timeLoss="12.25" rerouteNo="0" devices="tripinfo_flow_3.11" vType="car" speedFactor="1.14" vaporized=""/>
    <tripinfo id="flow_4.6" depart="18.00" departLane="-E1_0" departPos="5.10" departSpeed="0.00" departDelay="12.00" arrival="62.00" arrivalLane="E30_0" arrivalPos="70.36" arrivalSpeed="15.87" duration="44.00" routeLength="249.30" waitingTime="3.00" waitingCount="3" stopTime="0.00" timeLoss="27.04" rerouteNo="0" devices="tripinfo_flow_4.6" vType="car" speedFactor="1.17" vaporized=""/>
    <tripinfo id="flow_3.12" depart="36.00" departLane="-E3_0" departPos="5.10" departSpeed="0.00" departDelay="24.00" arrival="63.00" arrivalLane="-E20_0" arrivalPos="72.09" arrivalSpeed="12.94" duration="27.00" routeLength="214.40" waitingTime="0.00" waitingCount="0" stopTime="0.00" timeLoss="10.95" rerouteNo="0" devices="tripinfo_flow_3.12" vType="car" speedFactor="1.02" vaporized=""/>
    <tripinfo id="flow_5.7" depart="21.00" departLane="E2_0" departPos="5.10" departSpeed="0.00" departDelay="14.00" arrival="66.00" arrivalLane="E30_0" arrivalPos="70.36" arrivalSpeed="12.14" duration="45.00" routeLength="215.43" waitingTime="2.00" waitingCount="1" stopTime="0.00" timeLoss="25.43" rerouteNo="0" devices="tripinfo_flow_5.7" vType="car" speedFactor="0.90" vaporized=""/>
    <tripinfo id="flow_3.13" depart="39.00" departLane="-E3_0" departPos="5.10" departSpeed="0.00" departDelay="26.00" arrival="67.00" arrivalLane="-E20_0" arrivalPos="72.09" arrivalSpeed="12.05" duration="28.00" routeLength="214.40" waitingTime="0.00" waitingCount="0" stopTime="0.00" timeLoss="9.17" rerouteNo="0" devices="tripinfo_flow_3.13" vType="car" speedFactor="0.91" vaporized=""/>
    <tripinfo id="flow_5.8" depart="24.00" departLane="E2_0" departPos="5.10" departSpeed="0.00" departDelay="16.00" arrival="68.00" arrivalLane="E30_0" arrivalPos="70.36" arrivalSpeed="13.85" duration="44.00" routeLength="215.43" waitingTime="5.00" waitingCount="3" stopTime="0.00" timeLoss="27.05" rerouteNo="0" devices="tripinfo_flow_5.8" vType="car" speedFactor="1.04" vaporized=""/>
    <tripinfo id="flow_3.14" depart="42.00" departLane="-E3_0" departPos="5.10" departSpeed="0.00" departDelay="28.00" arrival="69.00" arrivalLane="-E20_0" arrivalPos="72.09" arrivalSpeed="12.12" duration="27.00" routeLength="214.40" waitingTime="0.00" waitingCount="0" stopTime="0.00" timeLoss="9.08" rerouteNo="0" devices="tripinfo_flow_3.14" vType="car" speedFactor="0.94" vaporized=""/>
    <tripinfo id="flow_5.9" depart="27.00" departLane="E2_0" departPos="5.10" departSpeed="0.00" departDelay="18.00" arrival="72.00" arrivalLane="E30_0" arrivalPos="70.36" arrivalSpeed="10.74" duration="45.00" routeLength="215.43" waitingTime="0.00" waitingCount="0" stopTime="0.00" timeLoss="24.39" rerouteNo="0" devices="tripinfo_flow_5.9" vType="car" speedFactor="0.85" vaporized=""/>
    <tripinfo id="flow_3.15" depart="45.00" departLane="-E3_0" departPos="5.10" departSpeed="0.00" departDelay="30.00" arrival="72.00" arrivalLane="-E20_0" arrivalPos="72.09" arrivalSpeed="12.54" duration="27.00" routeLength="214.40" waitingTime="0.00" waitingCount="0" stopTime="0.00" timeLoss="9.16" rerouteNo="0" devices="tripinfo_flow_3.15" vType="car" speedFactor="0.98" vaporized=""/>
    <tripinfo id="flow_5.10" depart="30.00" departLane="E2_0" departPos="5.10" departSpeed="0.00" departDelay="20.00" arrival="74.00" arrivalLane="E30_0" arrivalPos="70.36" arrivalSpeed="13.29" duration="44.00" routeLength="215.43" waitingTime="0.00" waitingCount="0" stopTime="0.00" timeLoss="26.77" rerouteNo="0" devices="tripinfo_flow_5.10" vType="car" speedFactor="1.00" vaporized=""/>
    <tripinfo id="flow_5.12" depart="39.00" departLane="E2_0" departPos="5.10" departSpeed="0.00" departDelay="27.00" arrival="76.00" arrivalLane="E30_0" arrivalPos="70.36" arrivalSpeed="12.80" duration="37.00" routeLength="215.43" waitingTime="0.00" waitingCount="0" stopTime="0.00" timeLoss="18.48" rerouteNo="0" devices="tripinfo_flow_5.12" vType="car" speedFactor="0.94" vaporized=""/>
    <tripinfo id="flow_5.13" depart="44.00" departLane="E2_0" departPos="5.10" departSpeed="0.00" departDelay="31.00" arrival="78.00" arrivalLane="E30_0" arrivalPos="70.36" arrivalSpeed="13.41" duration="34.00" routeLength="215.43" waitingTime="0.00" waitingCount="0" stopTime="0.00" timeLoss="16.75" rerouteNo="0" devices="tripinfo_flow_5.13" vType="car" speedFactor="1.02" vaporized=""/>
    <tripinfo id="flow_3.16" depart="48.00" departLane="-E3_0" departPos="5.10" departSpeed="0.00" departDelay="32.00" arrival="78.00" arrivalLane="-E20_0" arrivalPos="72.09" arrivalSpeed="13.29" duration="30.00" routeLength="214.40" waitingTime="3.00" waitingCount="1" stopTime="0.00" timeLoss="13.81" rerouteNo="0" devices="tripinfo_flow_3.16" vType="car" speedFactor="1.02" vaporized=""/>
    <tripinfo id="flow_5.11" depart="35.00" departLane="E2_0" departPos="5.10" departSpeed="0.00" departDelay="24.00" arrival="80.00" arrivalLane="E30_0" arrivalPos="70.36" arrivalSpeed="13.34" duration="45.00" routeLength="215.43" waitingTime="3.00" waitingCount="2" stopTime="0.00" timeLoss="27.66" rerouteNo="0" devices="tripinfo_flow_5.11" vType="car" speedFactor="0.97" vaporized=""/>
    <tripinfo id="flow_5.14" depart="47.00" departLane="E2_0" departPos="5.10" departSpeed="0.00" departDelay="33.00" arrival="83.00" arrivalLane="E30_0" arrivalPos="70.36" arrivalSpeed="13.02" duration="36.00" routeLength="215.43" waitingTime="1.00" waitingCount="1" stopTime="0.00" timeLoss="17.46" rerouteNo="0" devices="tripinfo_flow_5.14" vType="car" speedFactor="0.96" vaporized=""/>
    <tripinfo id="flow_3.17" depart="51.00" departLane="-E3_0" departPos="5.10" departSpeed="0.00" departDelay="34.00" arrival="83.00" arrivalLane="-E20_0" arrivalPos="72.09" arrivalSpeed="14.13" duration="32.00" routeLength="214.40" waitingTime="1.00" waitingCount="1" stopTime="0.00" timeLoss="15.81" rerouteNo="0" devices="tripinfo_flow_3.17" vType="car" speedFactor="1.04" vaporized=""/>
    <tripinfo id="flow_5.15" depart="50.00" departLane="E2_0" departPos="5.10" departSpeed="0.00" departDelay="35.00" arrival="87.00" arrivalLane="E30_0" arrivalPos="70.36" arrivalSpeed="14.45" duration="37.00" routeLength="215.43" waitingTime="0.00" waitingCount="0" stopTime="0.00" timeLoss="21.06" rerouteNo="0" devices="tripinfo_flow_5.15" vType="car" speedFactor="1.09" vaporized=""/>
    <tripinfo id="flow_3.19" depart="57.00" departLane="-E3_0" departPos="5.10" departSpeed="0.00" departDelay="38.00" arrival="87.00" arrivalLane="-E20_0" arrivalPos="72.09" arrivalSpeed="12.18" duration="30.00" routeLength="214.40" waitingTime="1.00" waitingCount="1" stopTime="0.00" timeLoss="11.72" rerouteNo="0" devices="tripinfo_flow_3.19" vType="car" speedFactor="0.91" vaporized=""/>
    <tripinfo id="flow_2.1" depart="9.00" departLane="E0_0" departPos="5.10" departSpeed="0.00" departDelay="8.00" arrival="89.00" arrivalLane="E1.20_0" arrivalPos="69.82" arrivalSpeed="13.38" duration="80.00" routeLength="213.19" waitingTime="47.00" waitingCount="3" stopTime="0.00" timeLoss="64.16" rerouteNo="0" devices="tripinfo_flow_2.1" vType="car" speedFactor="1.05" vaporized=""/>
    <tripinfo id="flow_4.7" depart="21.00" departLane="-E1_0" departPos="5.10" departSpeed="0.00" departDelay="14.00" arrival="90.00" arrivalLane="E30_0" arrivalPos="70.36" arrivalSpeed="15.29" duration="69.00" routeLength="249.30" waitingTime="25.00" waitingCount="2" stopTime="0.00" timeLoss="51.04" rerouteNo="0" devices="tripinfo_flow_4.7" vType="car" speedFactor="1.10" vaporized=""/>
    <tripinfo id="flow_3.18" depart="54.00" departLane="-E3_0" departPos="5.10" departSpeed="0.00" departDelay="36.00" arrival="90.00" arrivalLane="-E20_0" arrivalPos="72.09" arrivalSpeed="11.49" duration="36.00" routeLength="214.40" waitingTime="0.00" waitingCount="0" stopTime="0.00" timeLoss="15.46" rerouteNo="0" devices="tripinfo_flow_3.18" vType="car" speedFactor="0.83" vaporized=""/>
    <tripinfo id="flow_3.20" depart="60.00" departLane="-E3_0" departPos="5.10" departSpeed="0.00" departDelay="40.00" arrival="92.00" arrivalLane="-E20_0" arrivalPos="72.09" arrivalSpeed="12.32" duration="32.00" routeLength="214.40" waitingTime="2.00" waitingCount="1" stopTime="0.00" timeLoss="14.79" rerouteNo="0" devices="tripinfo_flow_3.20" vType="car" speedFactor="0.97" vaporized=""/>
    <tripinfo id="flow_4.8" depart="24.00" departLane="-E1_0" departPos="5.10" departSpeed="0.00" departDelay="16.00" arrival="93.00" arrivalLane="E30_0" arrivalPos="70.36" arrivalSpeed="13.81" duration="69.00" routeLength="249.30" waitingTime="23.00" waitingCount="1" stopTime="0.00" timeLoss="50.10" rerouteNo="0" devices="tripinfo_flow_4.8" vType="car" speedFactor="1.04" vaporized=""/>
    <tripinfo id="flow_4.9" depart="27.00" departLane="-E1_0" departPos="5.10" departSpeed="0.00" departDelay="18.00" arrival="96.00" arrivalLane="E30_0" arrivalPos="70.36" arrivalSpeed="11.19" duration="69.00" routeLength="249.30" waitingTime="23.00" waitingCount="2" stopTime="0.00" timeLoss="46.61" rerouteNo="0" devices="tripinfo_flow_4.9" vType="car" speedFactor="0.88" vaporized=""/>
    <tripinfo id="flow_3.21" depart="63.00" departLane="-E3_0" departPos="5.10" departSpeed="0.00" departDelay="42.00" arrival="96.00" arrivalLane="-E20_0" arrivalPos="72.09" arrivalSpeed="13.28" duration="33.00" routeLength="214.40" waitingTime="1.00" waitingCount="1" stopTime="0.00" timeLoss="16.28" rerouteNo="0" devices="tripinfo_flow_3.21" vType="car" speedFactor="1.03" vaporized=""/>
    <tripinfo id="flow_5.17" depart="56.00" departLane="E2_0" departPos="5.10" departSpeed="0.00" departDelay="39.00" arrival="98.00" arrivalLane="E30_0" arrivalPos="70.36" arrivalSpeed="13.19" duration="42.00" routeLength="215.43" waitingTime="1.00" waitingCount="1" stopTime="0.00" timeLoss="25.57" rerouteNo="0" devices="tripinfo_flow_5.17" vType="car" speedFactor="1.02" vaporized=""/>
    <tripinfo id="flow_3.22" depart="66.00" departLane="-E3_0" departPos="5.10" departSpeed="0.00" departDelay="44.00" arrival="99.00" arrivalLane="-E20_0" arrivalPos="72.09" arrivalSpeed="14.51" duration="33.00" routeLength="214.40" waitingTime="1.00" waitingCount="1" stopTime="0.00" timeLoss="17.45" rerouteNo="0" devices="tripinfo_flow_3.22" vType="car" speedFactor="1.10" vaporized=""/>
    <tripinfo id="flow_5.18" depart="59.00" departLane="E2_0" departPos="5.10" departSpeed="0.00" departDelay="41.00" arrival="101.00" arrivalLane="E30_0" arrivalPos="70.36" arrivalSpeed="14.87" duration="42.00" routeLength="215.43" waitingTime="1.00" waitingCount="1" stopTime="0.00" timeLoss="26.01" rerouteNo="0" devices="tripinfo_flow_5.18" vType="car" speedFactor="1.09" vaporized=""/>
    <tripinfo id="flow_5.16" depart="53.00" departLane="E2_0" departPos="5.10" departSpeed="0.00" departDelay="37.00" arrival="103.00" arrivalLane="E30_0" arrivalPos="70.36" arrivalSpeed="15.88" duration="50.00" routeLength="215.43" waitingTime="7.00" waitingCount="4" stopTime="0.00" timeLoss="34.90" rerouteNo="0" devices="tripinfo_flow_5.16" vType="car" speedFactor="1.15" vaporized=""/>
    <tripinfo id="flow_3.23" depart="69.00" departLane="-E3_0" departPos="5.10" departSpeed="0.00" departDelay="46.00" arrival="104.00" arrivalLane="-E20_0" arrivalPos="72.09" arrivalSpeed="13.56" duration="35.00" routeLength="214.40" waitingTime="0.00" waitingCount="0" stopTime="0.00" timeLoss="17.57" rerouteNo="0" devices="tripinfo_flow_3.23" vType="car" speedFactor="1.00" vaporized=""/>
    <tripinfo id="flow_5.20" depart="65.00" departLane="E2_0" departPos="5.10" departSpeed="0.00" departDelay="45.00" arrival="107.00" arrivalLane="E30_0" arrivalPos="70.36" arrivalSpeed="11.26" duration="42.00" routeLength="215.43" waitingTime="2.00" waitingCount="1" stopTime="0.00" timeLoss="22.97" rerouteNo="0" devices="tripinfo_flow_5.20" vType="car" speedFactor="0.89" vaporized=""/>
    <tripinfo id="flow_3.25" depart="75.00" departLane="-E3_0" departPos="5.10" departSpeed="0.00" departDelay="50.00" arrival="108.00" arrivalLane="-E20_0" arrivalPos="72.09" arrivalSpeed="10.30" duration="33.00" routeLength="214.40" waitingTime="0.00" waitingCount="0" stopTime="0.00" timeLoss="12.15" rerouteNo="0" devices="tripinfo_flow_3.25" vType="car" speedFactor="0.82" vaporized=""/>
    <tripinfo id="flow_5.19" depart="62.00" departLane="E2_0" departPos="5.10" departSpeed="0.00" departDelay="43.00" arrival="109.00" arrivalLane="E30_0" arrivalPos="70.36" arrivalSpeed="14.44" duration="47.00" routeLength="215.43" waitingTime="4.00" waitingCount="2" stopTime="0.00" timeLoss="30.68" rerouteNo="0" devices="tripinfo_flow_5.19" vType="car" speedFactor="1.10" vaporized=""/>
    <tripinfo id="flow_3.26" depart="78.00" departLane="-E3_0" departPos="5.10" departSpeed="0.00" departDelay="52.00" arrival="110.00" arrivalLane="-E20_0" arrivalPos="72.09" arrivalSpeed="12.89" duration="32.00" routeLength="214.40" waitingTime="0.00" waitingCount="0" stopTime="0.00" timeLoss="14.81" rerouteNo="0" devices="tripinfo_flow_3.26" vType="car" speedFactor="0.96" vaporized=""/>
    <tripinfo id="flow_4.10" depart="30.00" departLane="-E1_0" departPos="5.10" departSpeed="0.00" departDelay="20.00" arrival="111.00" arrivalLane="E30_0" arrivalPos="70.36" arrivalSpeed="15.11" duration="81.00" routeLength="249.30" waitingTime="30.00" waitingCount="4" stopTime="0.00" timeLoss="62.72" rerouteNo="0" devices="tripinfo_flow_4.10" vType="car" speedFactor="1.10" vaporized=""/>
    <tripinfo id="flow_3.27" depart="81.00" departLane="-E3_0" departPos="5.10" departSpeed="0.00" departDelay="54.00" arrival="112.00" arrivalLane="-E20_0" arrivalPos="72.09" arrivalSpeed="13.53" duration="31.00" routeLength="214.40" waitingTime="0.00" waitingCount="0" stopTime="0.00" timeLoss="14.76" rerouteNo="0" devices="tripinfo_flow_3.27" vType="car" speedFactor="1.02" vaporized=""/>
    <tripinfo id="flow_5.22" depart="71.00" departLane="E2_0" departPos="5.10" departSpeed="0.00" departDelay="49.00" arrival="113.00" arrivalLane="E30_0" arrivalPos="70.36" arrivalSpeed="15.13" duration="42.00" routeLength="215.43" waitingTime="2.00" waitingCount="2" stopTime="0.00" timeLoss="26.11" rerouteNo="0" devices="tripinfo_flow_5.22" vType="car" speedFactor="1.10" vaporized=""/>
    <tripinfo id="flow_5.23" depart="74.00" departLane="E2_0" departPos="5.10" departSpeed="0.00" departDelay="51.00" arrival="115.00" arrivalLane="E30_0" arrivalPos="70.36" arrivalSpeed="14.49" duration="41.00" routeLength="215.43" waitingTime="0.00" waitingCount="0" stopTime="0.00" timeLoss="24.80" rerouteNo="0" devices="tripinfo_flow_5.23" vType="car" speedFactor="1.07" vaporized=""/>
    <tripinfo id="flow_3.28" depart="84.00" departLane="-E3_0" departPos="5.10" departSpeed="0.00" departDelay="56.00" arrival="115.00" arrivalLane="-E20_0" arrivalPos="72.09" arrivalSpeed="11.79" duration="31.00" routeLength="214.40" waitingTime="0.00" waitingCount="0" stopTime="0.00" timeLoss="13.16" rerouteNo="0" devices="tripinfo_flow_3.28" vType="car" speedFactor="0.94" vaporized=""/>
    <tripinfo id="flow_3.29" depart="87.00" departLane="-E3_0" departPos="5.10" departSpeed="0.00" departDelay="58.00" arrival="117.00" arrivalLane="-E20_0" arrivalPos="72.09" arrivalSpeed="12.67" duration="30.00" routeLength="214.40" waitingTime="0.00" waitingCount="0" stopTime="0.00" timeLoss="13.37" rerouteNo="0" devices="tripinfo_flow_3.29" vType="car" speedFactor="1.00" vaporized=""/>
    <tripinfo id="flow_5.21" depart="68.00" departLane="E2_0" departPos="5.10" departSpeed="0.00" departDelay="47.00" arrival="119.00" arrivalLane="E30_0" arrivalPos="70.36" arrivalSpeed="12.78" duration="51.00" routeLength="215.43" waitingTime="4.00" waitingCount="4" stopTime="0.00" timeLoss="32.34" rerouteNo="0" devices="tripinfo_flow_5.21" vType="car" speedFactor="0.96" vaporized=""/>
    <tripinfo id="flow_3.31" depart="93.00" departLane="-E3_0" departPos="5.10" departSpeed="0.00" departDelay="62.00" arrival="119.00" arrivalLane="-E20_0" arrivalPos="72.09" arrivalSpeed="14.21" duration="26.00" routeLength="214.40" waitingTime="0.00" waitingCount="0" stopTime="0.00" timeLoss="10.45" rerouteNo="0" devices="tripinfo_flow_3.31" vType="car" speedFactor="1.08" vaporized=""/>
    <tripinfo id="flow_4.11" depart="33.00" departLane="-E1_0" departPos="5.10" departSpeed="0.00" departDelay="22.00" arrival="120.00" arrivalLane="E30_0" arrivalPos="70.36" arrivalSpeed="13.62" duration="87.00" routeLength="249.30" waitingTime="28.00" waitingCount="4" stopTime="0.00" timeLoss="68.41" rerouteNo="0" devices="tripinfo_flow_4.11" vType="car" speedFactor="1.02" vaporized=""/>
    <tripinfo id="flow_3.24" depart="72.00" departLane="-E3_0" departPos="5.10" departSpeed="0.00" departDelay="48.00" arrival="122.00" arrivalLane="-E20_0" arrivalPos="72.09" arrivalSpeed="13.05" duration="50.00" routeLength="214.40" waitingTime="9.00" waitingCount="6" stopTime="0.00" timeLoss="33.33" rerouteNo="0" devices="tripinfo_flow_3.24" vType="car" speedFactor="1.03" vaporized=""/>
    <tripinfo id="flow_5.26" depart="84.00" departLane="E2_0" departPos="5.10" departSpeed="0.00" departDelay="58.00" arrival="122.00" arrivalLane="E30_0" arrivalPos="70.36" arrivalSpeed="15.90" duration="38.00" routeLength="215.43" waitingTime="0.00" waitingCount="0" stopTime="0.00" timeLoss="24.03" rerouteNo="0" devices="tripinfo_flow_5.26" vType="car" speedFactor="1.23" vaporized=""/>
    <tripinfo id="flow_3.32" depart="96.00" departLane="-E3_0" departPos="5.10" departSpeed="0.00" departDelay="64.00" arrival="125.00" arrivalLane="-E20_0" arrivalPos="72.09" arrivalSpeed="13.51" duration="29.00" routeLength="214.40" waitingTime="1.00" waitingCount="1" stopTime="0.00" timeLoss="11.83" rerouteNo="0" devices="tripinfo_flow_3.32" vType="car" speedFactor="0.99" vaporized=""/>
    <tripinfo id="flow_3.30" depart="90.00" departLane="-E3_0" departPos="5.10" departSpeed="0.00" departDelay="60.00" arrival="127.00" arrivalLane="-E20_0" arrivalPos="72.09" arrivalSpeed="13.62" duration="37.00" routeLength="214.40" waitingTime="1.00" waitingCount="1" stopTime="0.00" timeLoss="20.94" rerouteNo="0" devices="tripinfo_flow_3.30" vType="car" speedFactor="1.07" vaporized=""/>
    <tripinfo id="flow_5.28" depart="90.00" departLane="E2_0" departPos="5.10" departSpeed="0.00" departDelay="62.00" arrival="128.00" arrivalLane="E30_0" arrivalPos="70.36" arrivalSpeed="9.09" duration="38.00" routeLength="215.43" waitingTime="0.00" waitingCount="0" stopTime="0.00" timeLoss="14.64" rerouteNo="0" devices="tripinfo_flow_5.28" vType="car" speedFactor="0.73" vaporized=""/>