<?xml version="1.0" encoding="UTF-8"?>

<!-- generated on 2024-06-12 17:48:17 by Eclipse SUMO GUI Version v1_19_0+1953-d1f119dd4db
<configuration xmlns:xsi="http://www.w3.org/2001/XMLSchema-instance" xsi:noNamespaceSchemaLocation="http://sumo.dlr.de/xsd/sumoConfiguration.xsd">

    <input>
        <net-file value="roundabout_test.net.xml"/>
        <route-files value="roundabout_demand.rou.xml"/>
    </input>

    <output>
        <tripinfo-output value="tripinfor.xml"/>
    </output>

    <traci_server>
        <remote-port value="57137"/>
    </traci_server>

</configuration>
-->

<tripinfos xmlns:xsi="http://www.w3.org/2001/XMLSchema-instance" xsi:noNamespaceSchemaLocation="http://sumo.dlr.de/xsd/tripinfo_file.xsd">
    <tripinfo id="flow_1.0" depart="0.00" departLane="E0_0" departPos="5.10" departSpeed="0.00" departDelay="0.00" arrival="20.00" arrivalLane="E30_0" arrivalPos="68.75" arrivalSpeed="14.57" duration="20.00" routeLength="174.43" waitingTime="0.00" waitingCount="0" stopTime="0.00" timeLoss="6.89" rerouteNo="0" devices="tripinfo_flow_1.0" vType="car" speedFactor="1.06" vaporized=""/>
    <tripinfo id="flow_5.0" depart="0.00" departLane="-E2_0" departPos="5.10" departSpeed="0.00" departDelay="0.00" arrival="21.00" arrivalLane="-E0.26_0" arrivalPos="64.57" arrivalSpeed="14.01" duration="21.00" routeLength="175.29" waitingTime="0.00" waitingCount="0" stopTime="0.00" timeLoss="7.28" rerouteNo="0" devices="tripinfo_flow_5.0" vType="car" speedFactor="1.03" vaporized=""/>
    <tripinfo id="flow_3.0" depart="0.00" departLane="-E3_0" departPos="5.10" departSpeed="0.00" departDelay="0.00" arrival="25.00" arrivalLane="E2.23_0" arrivalPos="67.39" arrivalSpeed="13.99" duration="25.00" routeLength="216.58" waitingTime="0.00" waitingCount="0" stopTime="0.00" timeLoss="7.71" rerouteNo="0" devices="tripinfo_flow_3.0" vType="car" speedFactor="1.01" vaporized=""/>
    <tripinfo id="flow_2.0" depart="3.00" departLane="E0_0" departPos="5.10" departSpeed="0.00" departDelay="3.00" arrival="27.00" arrivalLane="E10_0" arrivalPos="67.33" arrivalSpeed="12.54" duration="24.00" routeLength="213.62" waitingTime="0.00" waitingCount="0" stopTime="0.00" timeLoss="6.04" rerouteNo="0" devices="tripinfo_flow_2.0" vType="car" speedFactor="0.94" vaporized=""/>
    <tripinfo id="flow_4.0" depart="0.00" departLane="-E1_0" departPos="5.10" departSpeed="0.00" departDelay="0.00" arrival="27.00" arrivalLane="E30_0" arrivalPos="68.75" arrivalSpeed="14.71" duration="27.00" routeLength="261.58" waitingTime="0.00" waitingCount="0" stopTime="0.00" timeLoss="7.91" rerouteNo="0" devices="tripinfo_flow_4.0" vType="car" speedFactor="1.08" vaporized=""/>
    <tripinfo id="flow_1.1" depart="100.00" departLane="E0_0" departPos="5.10" departSpeed="0.00" departDelay="0.00" arrival="123.00" arrivalLane="E30_0" arrivalPos="68.75" arrivalSpeed="10.70" duration="23.00" routeLength="174.43" waitingTime="0.00" waitingCount="0" stopTime="0.00" timeLoss="5.85" rerouteNo="0" devices="tripinfo_flow_1.1" vType="car" speedFactor="0.83" vaporized=""/>
    <tripinfo id="flow_5.1" depart="100.00" departLane="-E2_0" departPos="5.10" departSpeed="0.00" departDelay="0.00" arrival="124.00" arrivalLane="-E0.26_0" arrivalPos="64.57" arrivalSpeed="10.88" duration="24.00" routeLength="175.29" waitingTime="0.00" waitingCount="0" stopTime="0.00" timeLoss="6.57" rerouteNo="0" devices="tripinfo_flow_5.1" vType="car" speedFactor="0.86" vaporized=""/>
    <tripinfo id="flow_3.1" depart="100.00" departLane="-E3_0" departPos="5.10" departSpeed="0.00" departDelay="0.00" arrival="126.00" arrivalLane="E2.23_0" arrivalPos="67.39" arrivalSpeed="11.16" duration="26.00" routeLength="216.58" waitingTime="0.00" waitingCount="0" stopTime="0.00" timeLoss="6.29" rerouteNo="0" devices="tripinfo_flow_3.1" vType="car" speedFactor="0.89" vaporized=""/>
    <tripinfo id="flow_2.1" depart="103.00" departLane="E0_0" departPos="5.10" departSpeed="0.00" departDelay="3.00" arrival="127.00" arrivalLane="E10_0" arrivalPos="67.33" arrivalSpeed="13.47" duration="24.00" routeLength="213.62" waitingTime="0.00" waitingCount="0" stopTime="0.00" timeLoss="7.94" rerouteNo="0" devices="tripinfo_flow_2.1" vType="car" speedFactor="1.05" vaporized=""/>
    <tripinfo id="flow_4.1" depart="100.00" departLane="-E1_0" departPos="5.10" departSpeed="0.00" departDelay="0.00" arrival="129.00" arrivalLane="E30_0" arrivalPos="68.75" arrivalSpeed="12.95" duration="29.00" routeLength="261.58" waitingTime="0.00" waitingCount="0" stopTime="0.00" timeLoss="7.24" rerouteNo="0" devices="tripinfo_flow_4.1" vType="car" speedFactor="0.94" vaporized=""/>
    <tripinfo id="flow_1.2" depart="200.00" departLane="E0_0" departPos="5.10" departSpeed="0.00" departDelay="0.00" arrival="220.00" arrivalLane="E30_0" arrivalPos="68.75" arrivalSpeed="14.26" duration="20.00" routeLength="174.43" waitingTime="0.00" waitingCount="0" stopTime="0.00" timeLoss="7.02" rerouteNo="0" devices="tripinfo_flow_1.2" vType="car" speedFactor="1.09" vaporized=""/>
    <tripinfo id="flow_5.2" depart="200.00" departLane="-E2_0" departPos="5.10" departSpeed="0.00" departDelay="0.00" arrival="222.00" arrivalLane="-E0.26_0" arrivalPos="64.57" arrivalSpeed="13.11" duration="22.00" routeLength="175.29" waitingTime="0.00" waitingCount="0" stopTime="0.00" timeLoss="7.40" rerouteNo="0" devices="tripinfo_flow_5.2" vType="car" speedFactor="0.99" vaporized=""/>
    <tripinfo id="flow_3.2" depart="200.00" departLane="-E3_0" departPos="5.10" departSpeed="0.00" departDelay="0.00" arrival="225.00" arrivalLane="E2.23_0" arrivalPos="67.39" arrivalSpeed="14.07" duration="25.00" routeLength="216.58" waitingTime="0.00" waitingCount="0" stopTime="0.00" timeLoss="8.45" rerouteNo="0" devices="tripinfo_flow_3.2" vType="car" speedFactor="1.05" vaporized=""/>
    <tripinfo id="flow_2.2" depart="203.00" departLane="E0_0" departPos="5.10" departSpeed="0.00" departDelay="3.00" arrival="227.00" arrivalLane="E10_0" arrivalPos="67.33" arrivalSpeed="13.83" duration="24.00" routeLength="213.62" waitingTime="0.00" waitingCount="0" stopTime="0.00" timeLoss="8.01" rerouteNo="0" devices="tripinfo_flow_2.2" vType="car" speedFactor="1.03" vaporized=""/>
    <tripinfo id="flow_4.2" depart="200.00" departLane="-E1_0" departPos="5.10" departSpeed="0.00" departDelay="0.00" arrival="227.00" arrivalLane="E30_0" arrivalPos="68.75" arrivalSpeed="14.83" duration="27.00" routeLength="261.58" waitingTime="0.00" waitingCount="0" stopTime="0.00" timeLoss="8.57" rerouteNo="0" devices="tripinfo_flow_4.2" vType="car" speedFactor="1.12" vaporized=""/>
    <tripinfo id="flow_5.3" depart="300.00" departLane="-E2_0" departPos="5.10" departSpeed="0.00" departDelay="0.00" arrival="321.00" arrivalLane="-E0.26_0" arrivalPos="64.57" arrivalSpeed="15.60" duration="21.00" routeLength="175.29" waitingTime="0.00" waitingCount="0" stopTime="0.00" timeLoss="8.58" rerouteNo="0" devices="tripinfo_flow_5.3" vType="car" speedFactor="1.16" vaporized=""/>
    <tripinfo id="flow_1.3" depart="300.00" departLane="E0_0" departPos="5.10" departSpeed="0.00" departDelay="0.00" arrival="322.00" arrivalLane="E30_0" arrivalPos="68.75" arrivalSpeed="12.38" duration="22.00" routeLength="174.43" waitingTime="0.00" waitingCount="0" stopTime="0.00" timeLoss="6.58" rerouteNo="0" devices="tripinfo_flow_1.3" vType="car" speedFactor="0.93" vaporized=""/>
    <tripinfo id="flow_3.3" depart="300.00" departLane="-E3_0" departPos="5.10" departSpeed="0.00" departDelay="0.00" arrival="325.00" arrivalLane="E2.23_0" arrivalPos="67.39" arrivalSpeed="12.90" duration="25.00" routeLength="216.58" waitingTime="0.00" waitingCount="0" stopTime="0.00" timeLoss="7.08" rerouteNo="0" devices="tripinfo_flow_3.3" vType="car" speedFactor="0.94" vaporized=""/>
    <tripinfo id="flow_2.3" depart="303.00" departLane="E0_0" departPos="5.10" departSpeed="0.00" departDelay="3.00" arrival="329.00" arrivalLane="E10_0" arrivalPos="67.33" arrivalSpeed="11.94" duration="26.00" routeLength="213.62" waitingTime="0.00" waitingCount="0" stopTime="0.00" timeLoss="6.58" rerouteNo="0" devices="tripinfo_flow_2.3" vType="car" speedFactor="0.88" vaporized=""/>
    <tripinfo id="flow_4.3" depart="300.00" departLane="-E1_0" departPos="5.10" departSpeed="0.00" departDelay="0.00" arrival="329.00" arrivalLane="E30_0" arrivalPos="68.75" arrivalSpeed="12.67" duration="29.00" routeLength="261.58" waitingTime="0.00" waitingCount="0" stopTime="0.00" timeLoss="7.04" rerouteNo="0" devices="tripinfo_flow_4.3" vType="car" speedFactor="0.94" vaporized=""/>
    <tripinfo id="flow_1.4" depart="400.00" departLane="E0_0" departPos="5.10" departSpeed="0.00" departDelay="0.00" arrival="421.00" arrivalLane="E30_0" arrivalPos="68.75" arrivalSpeed="13.86" duration="21.00" routeLength="174.43" waitingTime="0.00" waitingCount="0" stopTime="0.00" timeLoss="7.32" rerouteNo="0" devices="tripinfo_flow_1.4" vType="car" speedFactor="1.02" vaporized=""/>
    <tripinfo id="flow_5.4" depart="400.00" departLane="-E2_0" departPos="5.10" departSpeed="0.00" departDelay="0.00" arrival="424.00" arrivalLane="-E0.26_0" arrivalPos="64.57" arrivalSpeed="11.28" duration="24.00" routeLength="175.29" waitingTime="0.00" waitingCount="0" stopTime="0.00" timeLoss="6.07" rerouteNo="0" devices="tripinfo_flow_5.4" vType="car" speedFactor="0.83" vaporized=""/>
    <tripinfo id="flow_3.4" depart="400.00" departLane="-E3_0" departPos="5.10" departSpeed="0.00" departDelay="0.00" arrival="425.00" arrivalLane="E2.23_0" arrivalPos="67.39" arrivalSpeed="12.96" duration="25.00" routeLength="216.58" waitingTime="0.00" waitingCount="0" stopTime="0.00" timeLoss="7.97" rerouteNo="0" devices="tripinfo_flow_3.4" vType="car" speedFactor="0.97" vaporized=""/>
    <tripinfo id="flow_2.4" depart="403.00" departLane="E0_0" departPos="5.10" departSpeed="0.00" departDelay="3.00" arrival="428.00" arrivalLane="E10_0" arrivalPos="67.33" arrivalSpeed="13.20" duration="25.00" routeLength="213.62" waitingTime="0.00" waitingCount="0" stopTime="0.00" timeLoss="8.88" rerouteNo="0" devices="tripinfo_flow_2.4" vType="car" speedFactor="1.01" vaporized=""/>
    <tripinfo id="flow_4.4" depart="400.00" departLane="-E1_0" departPos="5.10" departSpeed="0.00" departDelay="0.00" arrival="430.00" arrivalLane="E30_0" arrivalPos="68.75" arrivalSpeed="11.83" duration="30.00" routeLength="261.58" waitingTime="0.00" waitingCount="0" stopTime="0.00" timeLoss="6.42" rerouteNo="0" devices="tripinfo_flow_4.4" vType="car" speedFactor="0.89" vaporized=""/>
    <tripinfo id="flow_1.5" depart="500.00" departLane="E0_0" departPos="5.10" departSpeed="0.00" departDelay="0.00" arrival="522.00" arrivalLane="E30_0" arrivalPos="68.75" arrivalSpeed="10.92" duration="22.00" routeLength="174.43" waitingTime="0.00" waitingCount="0" stopTime="0.00" timeLoss="6.20" rerouteNo="0" devices="tripinfo_flow_1.5" vType="car" speedFactor="0.87" vaporized=""/>
    <tripinfo id="flow_5.5" depart="500.00" departLane="-E2_0" departPos="5.10" departSpeed="0.00" departDelay="0.00" arrival="522.00" arrivalLane="-E0.26_0" arrivalPos="64.57" arrivalSpeed="12.79" duration="22.00" routeLength="175.29" waitingTime="0.00" waitingCount="0" stopTime="0.00" timeLoss="6.65" rerouteNo="0" devices="tripinfo_flow_5.5" vType="car" speedFactor="0.93" vaporized=""/>
    <tripinfo id="flow_3.5" depart="500.00" departLane="-E3_0" departPos="5.10" departSpeed="0.00" departDelay="0.00" arrival="524.00" arrivalLane="E2.23_0" arrivalPos="67.39" arrivalSpeed="11.93" duration="24.00" routeLength="216.58" waitingTime="0.00" waitingCount="0" stopTime="0.00" timeLoss="6.46" rerouteNo="0" devices="tripinfo_flow_3.5" vType="car" speedFactor="0.95" vaporized=""/>
    <tripinfo id="flow_4.5" depart="500.00" departLane="-E1_0" departPos="5.10" departSpeed="0.00" departDelay="0.00" arrival="527.00" arrivalLane="E30_0" arrivalPos="68.75" arrivalSpeed="14.96" duration="27.00" routeLength="261.58" waitingTime="0.00" waitingCount="0" stopTime="0.00" timeLoss="8.71" rerouteNo="0" devices="tripinfo_flow_4.5" vType="car" speedFactor="1.13" vaporized=""/>
    <tripinfo id="flow_2.5" depart="503.00" departLane="E0_0" departPos="5.10" departSpeed="0.00" departDelay="3.00" arrival="529.00" arrivalLane="E10_0" arrivalPos="67.33" arrivalSpeed="12.26" duration="26.00" routeLength="213.62" waitingTime="0.00" waitingCount="0" stopTime="0.00" timeLoss="7.58" rerouteNo="0" devices="tripinfo_flow_2.5" vType="car" speedFactor="0.92" vaporized=""/>
    <tripinfo id="flow_1.6" depart="600.00" departLane="E0_0" departPos="5.10" departSpeed="0.00" departDelay="0.00" arrival="619.00" arrivalLane="E30_0" arrivalPos="68.75" arrivalSpeed="15.19" duration="19.00" routeLength="174.43" waitingTime="0.00" waitingCount="0" stopTime="0.00" timeLoss="6.69" rerouteNo="0" devices="tripinfo_flow_1.6" vType="car" speedFactor="1.18" vaporized=""/>
    <tripinfo id="flow_5.6" depart="600.00" departLane="-E2_0" departPos="5.10" departSpeed="0.00" departDelay="0.00" arrival="621.00" arrivalLane="-E0.26_0" arrivalPos="64.57" arrivalSpeed="12.75" duration="21.00" routeLength="175.29" waitingTime="0.00" waitingCount="0" stopTime="0.00" timeLoss="6.90" rerouteNo="0" devices="tripinfo_flow_5.6" vType="car" speedFactor="0.99" vaporized=""/>
    <tripinfo id="flow_3.6" depart="600.00" departLane="-E3_0" departPos="5.10" departSpeed="0.00" departDelay="0.00" arrival="624.00" arrivalLane="E2.23_0" arrivalPos="67.39" arrivalSpeed="12.67" duration="24.00" routeLength="216.58" waitingTime="0.00" waitingCount="0" stopTime="0.00" timeLoss="7.45" rerouteNo="0" devices="tripinfo_flow_3.6" vType="car" speedFactor="1.01" vaporized=""/>
    <tripinfo id="flow_4.6" depart="600.00" departLane="-E1_0" departPos="5.10" departSpeed="0.00" departDelay="0.00" arrival="625.00" arrivalLane="E30_0" arrivalPos="68.75" arrivalSpeed="16.20" duration="25.00" routeLength="261.58" waitingTime="0.00" waitingCount="0" stopTime="0.00" timeLoss="7.73" rerouteNo="0" devices="tripinfo_flow_4.6" vType="car" speedFactor="1.17" vaporized=""/>
    <tripinfo id="flow_2.6" depart="603.00" departLane="E0_0" departPos="5.10" departSpeed="0.00" departDelay="3.00" arrival="626.00" arrivalLane="E10_0" arrivalPos="67.33" arrivalSpeed="15.25" duration="23.00" routeLength="213.62" waitingTime="0.00" waitingCount="0" stopTime="0.00" timeLoss="7.99" rerouteNo="0" devices="tripinfo_flow_2.6" vType="car" speedFactor="1.15" vaporized=""/>
    <tripinfo id="flow_1.7" depart="700.00" departLane="E0_0" departPos="5.10" departSpeed="0.00" departDelay="0.00" arrival="720.00" arrivalLane="E30_0" arrivalPos="68.75" arrivalSpeed="13.36" duration="20.00" routeLength="174.43" waitingTime="0.00" waitingCount="0" stopTime="0.00" timeLoss="6.39" rerouteNo="0" devices="tripinfo_flow_1.7" vType="car" speedFactor="1.02" vaporized=""/>
    <tripinfo id="flow_3.7" depart="700.00" departLane="-E3_0" departPos="5.10" departSpeed="0.00" departDelay="0.00" arrival="722.00" arrivalLane="E2.23_0" arrivalPos="67.39" arrivalSpeed="15.94" duration="22.00" routeLength="216.58" waitingTime="0.00" waitingCount="0" stopTime="0.00" timeLoss="7.83" rerouteNo="0" devices="tripinfo_flow_3.7" vType="car" speedFactor="1.18" vaporized=""/>
    <tripinfo id="flow_5.7" depart="700.00" departLane="-E2_0" departPos="5.10" departSpeed="0.00" departDelay="0.00" arrival="723.00" arrivalLane="-E0.26_0" arrivalPos="64.57" arrivalSpeed="11.86" duration="23.00" routeLength="175.29" waitingTime="0.00" waitingCount="0" stopTime="0.00" timeLoss="6.69" rerouteNo="0" devices="tripinfo_flow_5.7" vType="car" speedFactor="0.90" vaporized=""/>
    <tripinfo id="flow_2.7" depart="703.00" departLane="E0_0" departPos="5.10" departSpeed="0.00" departDelay="3.00" arrival="727.00" arrivalLane="E10_0" arrivalPos="67.33" arrivalSpeed="12.62" duration="24.00" routeLength="213.62" waitingTime="0.00" waitingCount="0" stopTime="0.00" timeLoss="7.20" rerouteNo="0" devices="tripinfo_flow_2.7" vType="car" speedFactor="0.97" vaporized=""/>
    <tripinfo id="flow_4.7" depart="700.00" departLane="-E1_0" departPos="5.10" departSpeed="0.00" departDelay="0.00" arrival="727.00" arrivalLane="E30_0" arrivalPos="68.75" arrivalSpeed="14.04" duration="27.00" routeLength="261.58" waitingTime="0.00" waitingCount="0" stopTime="0.00" timeLoss="8.27" rerouteNo="0" devices="tripinfo_flow_4.7" vType="car" speedFactor="1.10" vaporized=""/>
    <tripinfo id="flow_1.8" depart="800.00" departLane="E0_0" departPos="5.10" departSpeed="0.00" departDelay="0.00" arrival="820.00" arrivalLane="E30_0" arrivalPos="68.75" arrivalSpeed="13.52" duration="20.00" routeLength="174.43" waitingTime="0.00" waitingCount="0" stopTime="0.00" timeLoss="6.31" rerouteNo="0" devices="tripinfo_flow_1.8" vType="car" speedFactor="1.03" vaporized=""/>
    <tripinfo id="flow_5.8" depart="800.00" departLane="-E2_0" departPos="5.10" departSpeed="0.00" departDelay="0.00" arrival="821.00" arrivalLane="-E0.26_0" arrivalPos="64.57" arrivalSpeed="14.48" duration="21.00" routeLength="175.29" waitingTime="0.00" waitingCount="0" stopTime="0.00" timeLoss="7.04" rerouteNo="0" devices="tripinfo_flow_5.8" vType="car" speedFactor="1.04" vaporized=""/>
    <tripinfo id="flow_3.8" depart="800.00" departLane="-E3_0" departPos="5.10" departSpeed="0.00" departDelay="0.00" arrival="823.00" arrivalLane="E2.23_0" arrivalPos="67.39" arrivalSpeed="14.62" duration="23.00" routeLength="216.58" waitingTime="0.00" waitingCount="0" stopTime="0.00" timeLoss="7.56" rerouteNo="0" devices="tripinfo_flow_3.8" vType="car" speedFactor="1.09" vaporized=""/>
    <tripinfo id="flow_4.8" depart="800.00" departLane="-E1_0" departPos="5.10" departSpeed="0.00" departDelay="0.00" arrival="827.00" arrivalLane="E30_0" arrivalPos="68.75" arrivalSpeed="14.25" duration="27.00" routeLength="261.58" waitingTime="0.00" waitingCount="0" stopTime="0.00" timeLoss="7.56" rerouteNo="0" devices="tripinfo_flow_4.8" vType="car" speedFactor="1.04" vaporized=""/>
    <tripinfo id="flow_2.8" depart="803.00" departLane="E0_0" departPos="5.10" departSpeed="0.00" departDelay="3.00" arrival="828.00" arrivalLane="E10_0" arrivalPos="67.33" arrivalSpeed="13.20" duration="25.00" routeLength="213.62" waitingTime="0.00" waitingCount="0" stopTime="0.00" timeLoss="7.19" rerouteNo="0" devices="tripinfo_flow_2.8" vType="car" speedFactor="0.96" vaporized=""/>
    <tripinfo id="flow_1.9" depart="900.00" departLane="E0_0" departPos="5.10" departSpeed="0.00" departDelay="0.00" arrival="921.00" arrivalLane="E30_0" arrivalPos="68.75" arrivalSpeed="14.38" duration="21.00" routeLength="174.43" waitingTime="0.00" waitingCount="0" stopTime="0.00" timeLoss="7.36" rerouteNo="0" devices="tripinfo_flow_1.9" vType="car" speedFactor="1.09" vaporized=""/>
    <tripinfo id="flow_5.9" depart="900.00" departLane="-E2_0" departPos="5.10" departSpeed="0.00" departDelay="0.00" arrival="924.00" arrivalLane="-E0.26_0" arrivalPos="64.57" arrivalSpeed="11.49" duration="24.00" routeLength="175.29" waitingTime="0.00" waitingCount="0" stopTime="0.00" timeLoss="6.37" rerouteNo="0" devices="tripinfo_flow_5.9" vType="car" speedFactor="0.85" vaporized=""/>
    <tripinfo id="flow_3.9" depart="900.00" departLane="-E3_0" departPos="5.10" departSpeed="0.00" departDelay="0.00" arrival="926.00" arrivalLane="E2.23_0" arrivalPos="67.39" arrivalSpeed="12.29" duration="26.00" routeLength="216.58" waitingTime="0.00" waitingCount="0" stopTime="0.00" timeLoss="6.89" rerouteNo="0" devices="tripinfo_flow_3.9" vType="car" speedFactor="0.90" vaporized=""/>
    <tripinfo id="flow_2.9" depart="903.00" departLane="E0_0" departPos="5.10" departSpeed="0.00" departDelay="3.00" arrival="927.00" arrivalLane="E10_0" arrivalPos="67.33" arrivalSpeed="13.43" duration="24.00" routeLength="213.62" waitingTime="0.00" waitingCount="0" stopTime="0.00" timeLoss="7.28" rerouteNo="0" devices="tripinfo_flow_2.9" vType="car" speedFactor="1.00" vaporized=""/>
    <tripinfo id="flow_4.9" depart="900.00" departLane="-E1_0" departPos="5.10" departSpeed="0.00" departDelay="0.00" arrival="930.00" arrivalLane="E30_0" arrivalPos="68.75" arrivalSpeed="12.00" duration="30.00" routeLength="261.58" waitingTime="0.00" waitingCount="0" stopTime="0.00" timeLoss="6.53" rerouteNo="0" devices="tripinfo_flow_4.9" vType="car" speedFactor="0.88" vaporized=""/>
</tripinfos>
